32
Atoms. Timestep: 382
Ni 1.01631 1.01631 1.01631
Ni 1.01631 2.77211 2.77211
Ni 2.77211 1.01631 2.77211
Ni 2.77211 2.77211 1.01631
Ni 1.01631 1.01631 4.52789
Ni 1.01631 2.77211 6.28369
Ni 2.77211 1.01631 6.28369
Ni 2.77211 2.77211 4.52789
Ni 1.01631 4.52789 1.01631
Ni 1.01631 6.28369 2.77211
Ni 2.77211 4.52789 2.77211
Ni 2.77211 6.28369 1.01631
Ni 1.01631 4.52789 4.52789
Ni 1.01631 6.28369 6.28369
Ni 2.77211 4.52789 6.28369
Ni 2.77211 6.28369 4.52789
Ni 4.52789 1.01631 1.01631
Ni 4.52789 2.77211 2.77211
Ni 6.28369 1.01631 2.77211
Ni 6.28369 2.77211 1.01631
Ni 4.52789 1.01631 4.52789
Ni 4.52789 2.77211 6.28369
Ni 6.28369 1.01631 6.28369
Ni 6.28369 2.77211 4.52789
Ni 4.52789 4.52789 1.01631
Ni 4.52789 6.28369 2.77211
Ni 6.28369 4.52789 2.77211
Ni 6.28369 6.28369 1.01631
Ni 4.52789 4.52789 4.52789
Ni 4.52789 6.28369 6.28369
Ni 6.28369 4.52789 6.28369
Ni 6.28369 6.28369 4.52789
