LAMMPS (29 Oct 2020)
# Compute elastic constant tensor for a crystal
#
# Written by Aidan Thompson (Sandia, athomps@sandia.gov)
#
#  This script uses the following three include files.
#
#   init.mod      (must be modified for different crystal structures)
# 	       	  Define units, deformation parameters and initial
#		  configuration of the atoms and simulation cell.
#
#
#   potential.mod    (must be modified for different pair styles)
# 		     Define pair style and other attributes
#		     not stored in restart file
#
#
#   displace.mod    (displace.mod should not need to be modified)
# 		    Perform positive and negative box displacements
# 		    in direction ${dir} and size ${up}.
# 		    It uses the resultant changes
#		    in stress to compute one
# 		    row of the elastic stiffness tensor
#
#		    Inputs variables:
#		    	   dir = the Voigt deformation component
#		    		    (1,2,3,4,5,6)
#		    Global constants:
#       	    	   up = the deformation magnitude (strain units)
#       		   cfac = conversion from LAMMPS pressure units to
#               	   output units for elastic constants
#
#
#  To run this on a different system, it should only be necessary to
#  modify the files init.mod and potential.mod. In order to calculate
#  the elastic constants correctly, care must be taken to specify
#  the correct units in init.mod (units, cfac and cunits). It is also
#  important to verify that the minimization of energy w.r.t atom
#  positions in the deformed cell is fully converged.
#  One indication of this is that the elastic constants are insensitive
#  to the choice of the variable ${up} in init.mod. Another is to check
#  the final max and two-norm forces reported in the log file. If you know
#  that minimization is not required, you can set maxiter = 0.0 in
#  init.mod.
#

include init.mod
# NOTE: This script can be modified for different atomic structures,
# units, etc. See in.elastic for more info.
#

# Define the finite deformation size. Try several values of this
# variable to verify that results do not depend on it.
variable up equal 1.0e-1

# Define the amount of random jiggle for atoms
# This prevents atoms from staying on saddle points
variable atomjiggle equal 1.0e-1

# Uncomment one of these blocks, depending on what units
# you are using in LAMMPS and for output

# metal units, elastic constants in eV/A^3
#units		metal
#variable cfac equal 6.2414e-7
#variable cunits string eV/A^3

# metal units, elastic constants in GPa
units		metal
variable cfac equal 1.0e-4
variable cunits string GPa

# real units, elastic constants in GPa
#units		real
#variable cfac equal 1.01325e-4
#variable cunits string GPa

# Define minimization parameters
variable etol equal 0.0
variable ftol equal 1.0e-10
variable maxiter equal 1000
variable maxeval equal 10000
variable dmax equal 1.0e-2

# generate the box and atom positions using a diamond lattice
variable a equal 5.43

boundary	p p p

#lattice         diamond $a
#region		box prism 0 2.0 0 3.0 0 4.0 0.0 0.0 0.0
#create_box	1 box
#create_atoms	1 box

read_restart    after_relax.restart
Reading restart file ...
  restart file = 29 Oct 2020, LAMMPS = 29 Oct 2020
  restoring atom style atomic from restart
  orthogonal box = (0.13842404 0.13842404 0.13842404) to (7.1615760 7.1615760 7.1615760)
  1 by 1 by 1 MPI processor grid
  restoring pair style zero from restart
  32 atoms
  read_restart CPU = 0.001 seconds
change_box      all triclinic
Changing box ...
  triclinic box = (0.13842404 0.13842404 0.13842404) to (7.1615760 7.1615760 7.1615760) with tilt (0.0000000 0.0000000 0.0000000)

dump            ela all xyz 100 equil.xyz
dump_modify     ela element Ni Ni
# Need to set mass to something, just to satisfy LAMMPS
#mass 1 1.0e-20

include potential.mod
# NOTE: This script can be modified for different pair styles
# See in.elastic for more info.

# Choose potential
#pair_style	sw
#pair_coeff * * Si.sw Si

pair_style      zero 7.0
pair_coeff	* *

fix             integ all nve
python          post_force_callback file animpiuq.py
fix             2 all python/torch 1 post_force post_force_callback
fix_modify      2 energy yes
run             0
Unused restart file global fix info:
  fix style: temp/berendsen, fix ID: therm
Neighbor list info ...
  update every 1 steps, delay 10 steps, check yes
  max neighbors/atom: 2000, page size: 100000
  master list distance cutoff = 9
  ghost atom cutoff = 9
  binsize = 4.5, bins = 2 2 2
  1 neighbor lists, perpetual/occasional/extra = 1 0 0
  (1) pair zero, perpetual
      attributes: half, newton on
      pair build: half/bin/newton/tri
      stencil: half/bin/3d/newton/tri
      bin: standard
Per MPI rank memory allocation (min/avg/max) = 3.005 | 3.005 | 3.005 Mbytes
Step Temp E_pair E_mol TotEng Press 
     381           10            0            0   -80849.396    126.94343 
Loop time of 6.19888e-06 on 1 procs for 0 steps with 32 atoms

96.8% CPU use with 1 MPI tasks x no OpenMP threads

MPI task timing breakdown:
Section |  min time  |  avg time  |  max time  |%varavg| %total
---------------------------------------------------------------
Pair    | 0          | 0          | 0          |   0.0 |  0.00
Neigh   | 0          | 0          | 0          |   0.0 |  0.00
Comm    | 0          | 0          | 0          |   0.0 |  0.00
Output  | 0          | 0          | 0          |   0.0 |  0.00
Modify  | 0          | 0          | 0          |   0.0 |  0.00
Other   |            | 6.199e-06  |            |       |100.00

Nlocal:        32.0000 ave          32 max          32 min
Histogram: 1 0 0 0 0 0 0 0 0 0
Nghost:        1340.00 ave        1340 max        1340 min
Histogram: 1 0 0 0 0 0 0 0 0 0
Neighs:        5120.00 ave        5120 max        5120 min
Histogram: 1 0 0 0 0 0 0 0 0 0

Total # of neighbors = 5120
Ave neighs/atom = 160.00000
Neighbor list builds = 0
Dangerous builds = 0
# Setup neighbor style
#neighbor 1.0 nsq
#neigh_modify once no every 1 delay 0 check yes
neighbor        1.0 bin
neigh_modify    every 1 delay 0 check yes

# Setup minimization style
min_style	     cg
min_modify	     dmax ${dmax} line quadratic
min_modify	     dmax 0.01 line quadratic

# Setup output
thermo		1
thermo_style custom step temp pe press pxx pyy pzz pxy pxz pyz lx ly lz vol
thermo_modify norm no
#run             1000

# Compute initial state
fix 3 all box/relax  aniso 0.0
minimize ${etol} ${ftol} ${maxiter} ${maxeval}
minimize 0 ${ftol} ${maxiter} ${maxeval}
minimize 0 1e-10 ${maxiter} ${maxeval}
minimize 0 1e-10 1000 ${maxeval}
minimize 0 1e-10 1000 10000
Per MPI rank memory allocation (min/avg/max) = 4.130 | 4.130 | 4.130 Mbytes
Step Temp PotEng Press Pxx Pyy Pzz Pxy Pxz Pyz Lx Ly Lz Volume 
     381           10   -80849.436    126.94343    134.90686    93.698979    152.22446    21.911457    1.1759108    17.834167    7.0231519    7.0231519    7.0231519     346.4146 
     382           10   -80849.436    126.94343    134.90686    93.698979    152.22446    21.911457    1.1759108    17.834167    7.0231519    7.0231519    7.0231519     346.4146 
Loop time of 1.166 on 1 procs for 1 steps with 32 atoms

99.6% CPU use with 1 MPI tasks x no OpenMP threads

Minimization stats:
  Stopping criterion = linesearch alpha is zero
  Energy initial, next-to-last, final = 
     -80849.4357018648  -80849.4357018648  -80849.4357018648
  Force two-norm initial, final = 0.0035814482 0.0035814482
  Force max component initial, final = 0.00073331171 0.00073331171
  Final line search alpha, max atom move = 0.00053268616 3.9062500e-07
  Iterations, force evaluations = 1 17

MPI task timing breakdown:
Section |  min time  |  avg time  |  max time  |%varavg| %total
---------------------------------------------------------------
Pair    | 0.00017023 | 0.00017023 | 0.00017023 |   0.0 |  0.01
Neigh   | 0          | 0          | 0          |   0.0 |  0.00
Comm    | 0.00026989 | 0.00026989 | 0.00026989 |   0.0 |  0.02
Output  | 0          | 0          | 0          |   0.0 |  0.00
Modify  | 1.1643     | 1.1643     | 1.1643     |   0.0 | 99.85
Other   |            | 0.001271   |            |       |  0.11

Nlocal:        32.0000 ave          32 max          32 min
Histogram: 1 0 0 0 0 0 0 0 0 0
Nghost:        1340.00 ave        1340 max        1340 min
Histogram: 1 0 0 0 0 0 0 0 0 0
Neighs:        3200.00 ave        3200 max        3200 min
Histogram: 1 0 0 0 0 0 0 0 0 0

Total # of neighbors = 3200
Ave neighs/atom = 100.00000
Neighbor list builds = 0
Dangerous builds = 0

variable tmp equal pxx
variable pxx0 equal ${tmp}
variable pxx0 equal 134.906857197643
variable tmp equal pyy
variable pyy0 equal ${tmp}
variable pyy0 equal 93.6989790669475
variable tmp equal pzz
variable pzz0 equal ${tmp}
variable pzz0 equal 152.224461324657
variable tmp equal pyz
variable pyz0 equal ${tmp}
variable pyz0 equal 17.8341666914872
variable tmp equal pxz
variable pxz0 equal ${tmp}
variable pxz0 equal 1.17591076874205
variable tmp equal pxy
variable pxy0 equal ${tmp}
variable pxy0 equal 21.9114570815241

variable tmp equal lx
variable lx0 equal ${tmp}
variable lx0 equal 7.02315192302752
variable tmp equal ly
variable ly0 equal ${tmp}
variable ly0 equal 7.02315192302752
variable tmp equal lz
variable lz0 equal ${tmp}
variable lz0 equal 7.02315192302752

# These formulas define the derivatives w.r.t. strain components
# Constants uses $, variables use v_
variable d1 equal -(v_pxx1-${pxx0})/(v_delta/v_len0)*${cfac}
variable d1 equal -(v_pxx1-134.906857197643)/(v_delta/v_len0)*${cfac}
variable d1 equal -(v_pxx1-134.906857197643)/(v_delta/v_len0)*0.0001
variable d2 equal -(v_pyy1-${pyy0})/(v_delta/v_len0)*${cfac}
variable d2 equal -(v_pyy1-93.6989790669475)/(v_delta/v_len0)*${cfac}
variable d2 equal -(v_pyy1-93.6989790669475)/(v_delta/v_len0)*0.0001
variable d3 equal -(v_pzz1-${pzz0})/(v_delta/v_len0)*${cfac}
variable d3 equal -(v_pzz1-152.224461324657)/(v_delta/v_len0)*${cfac}
variable d3 equal -(v_pzz1-152.224461324657)/(v_delta/v_len0)*0.0001
variable d4 equal -(v_pyz1-${pyz0})/(v_delta/v_len0)*${cfac}
variable d4 equal -(v_pyz1-17.8341666914872)/(v_delta/v_len0)*${cfac}
variable d4 equal -(v_pyz1-17.8341666914872)/(v_delta/v_len0)*0.0001
variable d5 equal -(v_pxz1-${pxz0})/(v_delta/v_len0)*${cfac}
variable d5 equal -(v_pxz1-1.17591076874205)/(v_delta/v_len0)*${cfac}
variable d5 equal -(v_pxz1-1.17591076874205)/(v_delta/v_len0)*0.0001
variable d6 equal -(v_pxy1-${pxy0})/(v_delta/v_len0)*${cfac}
variable d6 equal -(v_pxy1-21.9114570815241)/(v_delta/v_len0)*${cfac}
variable d6 equal -(v_pxy1-21.9114570815241)/(v_delta/v_len0)*0.0001

displace_atoms all random ${atomjiggle} ${atomjiggle} ${atomjiggle} 87287 units box
displace_atoms all random 0.1 ${atomjiggle} ${atomjiggle} 87287 units box
displace_atoms all random 0.1 0.1 ${atomjiggle} 87287 units box
displace_atoms all random 0.1 0.1 0.1 87287 units box
Displacing atoms ...

# Write restart
unfix 3
write_restart restart.equil
System init for write_restart ...

# uxx Perturbation

variable dir equal 1
include displace.mod
# NOTE: This script should not need to be
# modified. See in.elastic for more info.
#
# Find which reference length to use

if "${dir} == 1" then    "variable len0 equal ${lx0}"
variable len0 equal ${lx0}
variable len0 equal 7.02315192302752
if "${dir} == 2" then    "variable len0 equal ${ly0}"
if "${dir} == 3" then    "variable len0 equal ${lz0}"
if "${dir} == 4" then    "variable len0 equal ${lz0}"
if "${dir} == 5" then    "variable len0 equal ${lz0}"
if "${dir} == 6" then    "variable len0 equal ${ly0}"

# Reset box and simulation parameters

clear
box tilt large
read_restart restart.equil
Reading restart file ...
  restart file = 29 Oct 2020, LAMMPS = 29 Oct 2020
  restoring atom style atomic from restart
  triclinic box = (0.13842404 0.13842404 0.13842404) to (7.1615760 7.1615760 7.1615760) with tilt (0.0000000 0.0000000 0.0000000)
  1 by 1 by 1 MPI processor grid
  restoring pair style zero from restart
  32 atoms
  read_restart CPU = 0.001 seconds
include potential.mod
# NOTE: This script can be modified for different pair styles
# See in.elastic for more info.

# Choose potential
#pair_style	sw
#pair_coeff * * Si.sw Si

pair_style      zero 7.0
pair_coeff	* *

fix             integ all nve
python          post_force_callback file animpiuq.py
fix             2 all python/torch 1 post_force post_force_callback
fix_modify      2 energy yes
run             0
Neighbor list info ...
  update every 1 steps, delay 10 steps, check yes
  max neighbors/atom: 2000, page size: 100000
  master list distance cutoff = 9
  ghost atom cutoff = 9
  binsize = 4.5, bins = 2 2 2
  1 neighbor lists, perpetual/occasional/extra = 1 0 0
  (1) pair zero, perpetual
      attributes: half, newton on
      pair build: half/bin/newton/tri
      stencil: half/bin/3d/newton/tri
      bin: standard
Per MPI rank memory allocation (min/avg/max) = 3.005 | 3.005 | 3.005 Mbytes
Step Temp E_pair E_mol TotEng Press 
     382           10            0            0   -80847.893    23905.202 
Loop time of 4.05312e-06 on 1 procs for 0 steps with 32 atoms

98.7% CPU use with 1 MPI tasks x no OpenMP threads

MPI task timing breakdown:
Section |  min time  |  avg time  |  max time  |%varavg| %total
---------------------------------------------------------------
Pair    | 0          | 0          | 0          |   0.0 |  0.00
Neigh   | 0          | 0          | 0          |   0.0 |  0.00
Comm    | 0          | 0          | 0          |   0.0 |  0.00
Output  | 0          | 0          | 0          |   0.0 |  0.00
Modify  | 0          | 0          | 0          |   0.0 |  0.00
Other   |            | 4.053e-06  |            |       |100.00

Nlocal:        32.0000 ave          32 max          32 min
Histogram: 1 0 0 0 0 0 0 0 0 0
Nghost:        1340.00 ave        1340 max        1340 min
Histogram: 1 0 0 0 0 0 0 0 0 0
Neighs:        4782.00 ave        4782 max        4782 min
Histogram: 1 0 0 0 0 0 0 0 0 0

Total # of neighbors = 4782
Ave neighs/atom = 149.43750
Neighbor list builds = 0
Dangerous builds = 0
# Setup neighbor style
#neighbor 1.0 nsq
#neigh_modify once no every 1 delay 0 check yes
neighbor        1.0 bin
neigh_modify    every 1 delay 0 check yes

# Setup minimization style
min_style	     cg
min_modify	     dmax ${dmax} line quadratic
min_modify	     dmax 0.01 line quadratic

# Setup output
thermo		1
thermo_style custom step temp pe press pxx pyy pzz pxy pxz pyz lx ly lz vol
thermo_modify norm no
#run             1000
run 0
Per MPI rank memory allocation (min/avg/max) = 3.005 | 3.005 | 3.005 Mbytes
Step Temp PotEng Press Pxx Pyy Pzz Pxy Pxz Pyz Lx Ly Lz Volume 
     382           10   -80847.933    23905.202    21622.129    24051.077    26042.401   -427.11643   -5134.8861     697.2559    7.0231519    7.0231519    7.0231519     346.4146 
Loop time of 3.09944e-06 on 1 procs for 0 steps with 32 atoms

129.1% CPU use with 1 MPI tasks x no OpenMP threads

MPI task timing breakdown:
Section |  min time  |  avg time  |  max time  |%varavg| %total
---------------------------------------------------------------
Pair    | 0          | 0          | 0          |   0.0 |  0.00
Neigh   | 0          | 0          | 0          |   0.0 |  0.00
Comm    | 0          | 0          | 0          |   0.0 |  0.00
Output  | 0          | 0          | 0          |   0.0 |  0.00
Modify  | 0          | 0          | 0          |   0.0 |  0.00
Other   |            | 3.099e-06  |            |       |100.00

Nlocal:        32.0000 ave          32 max          32 min
Histogram: 1 0 0 0 0 0 0 0 0 0
Nghost:        1340.00 ave        1340 max        1340 min
Histogram: 1 0 0 0 0 0 0 0 0 0
Neighs:        3197.00 ave        3197 max        3197 min
Histogram: 1 0 0 0 0 0 0 0 0 0

Total # of neighbors = 3197
Ave neighs/atom = 99.906250
Neighbor list builds = 0
Dangerous builds = 0

# Negative deformation

variable delta equal -${up}*${len0}
variable delta equal -0.1*${len0}
variable delta equal -0.1*7.02315192302752
variable deltaxy equal -${up}*xy
variable deltaxy equal -0.1*xy
variable deltaxz equal -${up}*xz
variable deltaxz equal -0.1*xz
variable deltayz equal -${up}*yz
variable deltayz equal -0.1*yz
if "${dir} == 1" then    "change_box all x delta 0 ${delta} xy delta ${deltaxy} xz delta ${deltaxz} remap units box"
change_box all x delta 0 ${delta} xy delta ${deltaxy} xz delta ${deltaxz} remap units box
change_box all x delta 0 -0.702315192302752 xy delta ${deltaxy} xz delta ${deltaxz} remap units box
change_box all x delta 0 -0.702315192302752 xy delta -0 xz delta ${deltaxz} remap units box
change_box all x delta 0 -0.702315192302752 xy delta -0 xz delta -0 remap units box
Changing box ...
  triclinic box = (0.13842404 0.13842404 0.13842404) to (6.4592608 7.1615760 7.1615760) with tilt (0.0000000 0.0000000 0.0000000)
  triclinic box = (0.13842404 0.13842404 0.13842404) to (6.4592608 7.1615760 7.1615760) with tilt (0.0000000 0.0000000 0.0000000)
  triclinic box = (0.13842404 0.13842404 0.13842404) to (6.4592608 7.1615760 7.1615760) with tilt (0.0000000 0.0000000 0.0000000)
if "${dir} == 2" then    "change_box all y delta 0 ${delta} yz delta ${deltayz} remap units box"
if "${dir} == 3" then    "change_box all z delta 0 ${delta} remap units box"
if "${dir} == 4" then    "change_box all yz delta ${delta} remap units box"
if "${dir} == 5" then    "change_box all xz delta ${delta} remap units box"
if "${dir} == 6" then    "change_box all xy delta ${delta} remap units box"

# Relax atoms positions

minimize ${etol} ${ftol} ${maxiter} ${maxeval}
minimize 0 ${ftol} ${maxiter} ${maxeval}
minimize 0 1e-10 ${maxiter} ${maxeval}
minimize 0 1e-10 1000 ${maxeval}
minimize 0 1e-10 1000 10000
Per MPI rank memory allocation (min/avg/max) = 4.130 | 4.130 | 4.130 Mbytes
Step Temp PotEng Press Pxx Pyy Pzz Pxy Pxz Pyz Lx Ly Lz Volume 
     382           10   -80843.761    327682.51    379288.49    300325.03    303434.01    155.42037   -7619.5237    1659.4211    6.3208367    7.0231519    7.0231519    311.77314 
     383           10   -80844.078    323153.66    375418.25    295802.22    298240.53    279.52554   -6012.3411    1666.6583    6.3208367    7.0231519    7.0231519    311.77314 
     384           10   -80844.361    319159.66     372034.3    291800.17    293644.51    393.04236    -4620.679    1637.6994    6.3208367    7.0231519    7.0231519    311.77314 
     385           10   -80844.612    315656.44    369102.65    288262.45    289604.22    488.68184   -3441.3248    1577.2986    6.3208367    7.0231519    7.0231519    311.77314 
     386           10   -80844.834    312604.13    366588.71    285149.74    286073.95    559.56964   -2464.8446    1489.4088    6.3208367    7.0231519    7.0231519    311.77314 
     387           10   -80845.028    309962.41    364457.69    282417.57    283011.98    599.77899   -1676.7672    1376.4501    6.3208367    7.0231519    7.0231519    311.77314 
     388           10   -80845.196    307693.94    362676.28    280026.83     280378.7    604.47683   -1061.2339    1238.8579    6.3208367    7.0231519    7.0231519    311.77314 
     389           10   -80845.342    305766.51    361219.55    277946.77    278133.21    567.60936   -602.80007    1075.1209    6.3208367    7.0231519    7.0231519    311.77314 
     390           10   -80845.465    304135.41    360071.18     276127.8    276207.25    483.97018   -287.48782    880.70294    6.3208367    7.0231519    7.0231519    311.77314 
     391           10   -80845.567    302798.64    359256.86     274553.3    274585.74     351.4046   -109.33307    652.97039    6.3208367    7.0231519    7.0231519    311.77314 
     392           10   -80845.635    301911.07    358876.32    273409.84    273447.05    203.22307   -56.353083    430.69524    6.3208367    7.0231519    7.0231519    311.77314 
     393           10   -80845.674    301419.69    358850.85    272670.52    272737.71    87.127767   -52.238336    256.67788    6.3208367    7.0231519    7.0231519    311.77314 
     394           10   -80845.695     301152.8    359036.81    272154.05    272267.53    24.232582   -41.157616     145.9122    6.3208367    7.0231519    7.0231519    311.77314 
     395           10   -80845.706    300958.41    359320.75    271704.65    271849.83    7.8033247   -18.980545    80.631905    6.3208367    7.0231519    7.0231519    311.77314 
     396           10   -80845.711    300902.04    359596.63    271521.43    271588.07    20.733934   -2.4815229    35.722568    6.3208367    7.0231519    7.0231519    311.77314 
     397           10   -80845.711    300902.42    359621.31    271510.25     271575.7    20.453837   -1.6750316     26.34871    6.3208367    7.0231519    7.0231519    311.77314 
     398           10   -80845.712    300906.38    359658.68    271497.65    271562.79     24.08316    1.2179831    21.632162    6.3208367    7.0231519    7.0231519    311.77314 
     399           10   -80845.712    300905.72     359663.6    271494.39    271559.16    24.246411     1.274737    19.973651    6.3208367    7.0231519    7.0231519    311.77314 
     400           10   -80845.712    300905.71    359664.14    271494.01    271558.97    24.324642    1.2999032    19.865786    6.3208367    7.0231519    7.0231519    311.77314 
     401           10   -80845.712    300905.62    359664.25    271493.81    271558.81    24.334594    1.3027078    19.822809    6.3208367    7.0231519    7.0231519    311.77314 
     402           10   -80845.712    300905.63    359664.28    271493.79    271558.81    24.342597    1.3099471    19.819953    6.3208367    7.0231519    7.0231519    311.77314 
     403           10   -80845.712    300905.63     359664.3    271493.78    271558.81    24.344564    1.3043098    19.817001    6.3208367    7.0231519    7.0231519    311.77314 
     404           10   -80845.712    300905.62     359664.3    271493.77     271558.8    24.347895    1.3045282    19.815619    6.3208367    7.0231519    7.0231519    311.77314 
     405           10   -80845.712    300905.62     359664.3    271493.77     271558.8    24.347895    1.3045282    19.815619    6.3208367    7.0231519    7.0231519    311.77314 
Loop time of 3.04844 on 1 procs for 23 steps with 32 atoms

99.2% CPU use with 1 MPI tasks x no OpenMP threads

Minimization stats:
  Stopping criterion = linesearch alpha is zero
  Energy initial, next-to-last, final = 
     -80843.7605874368  -80845.7119155115  -80845.7119155115
  Force two-norm initial, final = 9.1688287 0.00090284736
  Force max component initial, final = 2.5003444 0.00027899581
  Final line search alpha, max atom move = 0.0078125 2.1796548e-06
  Iterations, force evaluations = 23 45

MPI task timing breakdown:
Section |  min time  |  avg time  |  max time  |%varavg| %total
---------------------------------------------------------------
Pair    | 0.00045657 | 0.00045657 | 0.00045657 |   0.0 |  0.01
Neigh   | 0          | 0          | 0          |   0.0 |  0.00
Comm    | 0.0007453  | 0.0007453  | 0.0007453  |   0.0 |  0.02
Output  | 0.001687   | 0.001687   | 0.001687   |   0.0 |  0.06
Modify  | 3.0447     | 3.0447     | 3.0447     |   0.0 | 99.88
Other   |            | 0.0008614  |            |       |  0.03

Nlocal:        32.0000 ave          32 max          32 min
Histogram: 1 0 0 0 0 0 0 0 0 0
Nghost:        1340.00 ave        1340 max        1340 min
Histogram: 1 0 0 0 0 0 0 0 0 0
Neighs:        3495.00 ave        3495 max        3495 min
Histogram: 1 0 0 0 0 0 0 0 0 0

Total # of neighbors = 3495
Ave neighs/atom = 109.21875
Neighbor list builds = 0
Dangerous builds = 0

# Obtain new stress tensor

variable tmp equal pxx
variable pxx1 equal ${tmp}
variable pxx1 equal 359664.303575398
variable tmp equal pyy
variable pyy1 equal ${tmp}
variable pyy1 equal 271493.76802872
variable tmp equal pzz
variable pzz1 equal ${tmp}
variable pzz1 equal 271558.796249073
variable tmp equal pxy
variable pxy1 equal ${tmp}
variable pxy1 equal 24.3478947054766
variable tmp equal pxz
variable pxz1 equal ${tmp}
variable pxz1 equal 1.30452818440967
variable tmp equal pyz
variable pyz1 equal ${tmp}
variable pyz1 equal 19.8156194416041

# Compute elastic constant from pressure tensor

variable C1neg equal ${d1}
variable C1neg equal 359.5293967182
variable C2neg equal ${d2}
variable C2neg equal 271.400069049653
variable C3neg equal ${d3}
variable C3neg equal 271.406571787748
variable C4neg equal ${d4}
variable C4neg equal 0.0019814527501169
variable C5neg equal ${d5}
variable C5neg equal 0.00012861741566762
variable C6neg equal ${d6}
variable C6neg equal 0.0024364376239525

# Reset box and simulation parameters

clear
box tilt large
read_restart restart.equil
Reading restart file ...
  restart file = 29 Oct 2020, LAMMPS = 29 Oct 2020
  restoring atom style atomic from restart
  triclinic box = (0.13842404 0.13842404 0.13842404) to (7.1615760 7.1615760 7.1615760) with tilt (0.0000000 0.0000000 0.0000000)
  1 by 1 by 1 MPI processor grid
  restoring pair style zero from restart
  32 atoms
  read_restart CPU = 0.000 seconds
include potential.mod
# NOTE: This script can be modified for different pair styles
# See in.elastic for more info.

# Choose potential
#pair_style	sw
#pair_coeff * * Si.sw Si

pair_style      zero 7.0
pair_coeff	* *

fix             integ all nve
python          post_force_callback file animpiuq.py
fix             2 all python/torch 1 post_force post_force_callback
fix_modify      2 energy yes
run             0
Neighbor list info ...
  update every 1 steps, delay 10 steps, check yes
  max neighbors/atom: 2000, page size: 100000
  master list distance cutoff = 9
  ghost atom cutoff = 9
  binsize = 4.5, bins = 2 2 2
  1 neighbor lists, perpetual/occasional/extra = 1 0 0
  (1) pair zero, perpetual
      attributes: half, newton on
      pair build: half/bin/newton/tri
      stencil: half/bin/3d/newton/tri
      bin: standard
Per MPI rank memory allocation (min/avg/max) = 3.005 | 3.005 | 3.005 Mbytes
Step Temp E_pair E_mol TotEng Press 
     382           10            0            0   -80847.893    23905.202 
Loop time of 3.8147e-06 on 1 procs for 0 steps with 32 atoms

104.9% CPU use with 1 MPI tasks x no OpenMP threads

MPI task timing breakdown:
Section |  min time  |  avg time  |  max time  |%varavg| %total
---------------------------------------------------------------
Pair    | 0          | 0          | 0          |   0.0 |  0.00
Neigh   | 0          | 0          | 0          |   0.0 |  0.00
Comm    | 0          | 0          | 0          |   0.0 |  0.00
Output  | 0          | 0          | 0          |   0.0 |  0.00
Modify  | 0          | 0          | 0          |   0.0 |  0.00
Other   |            | 3.815e-06  |            |       |100.00

Nlocal:        32.0000 ave          32 max          32 min
Histogram: 1 0 0 0 0 0 0 0 0 0
Nghost:        1340.00 ave        1340 max        1340 min
Histogram: 1 0 0 0 0 0 0 0 0 0
Neighs:        4782.00 ave        4782 max        4782 min
Histogram: 1 0 0 0 0 0 0 0 0 0

Total # of neighbors = 4782
Ave neighs/atom = 149.43750
Neighbor list builds = 0
Dangerous builds = 0
# Setup neighbor style
#neighbor 1.0 nsq
#neigh_modify once no every 1 delay 0 check yes
neighbor        1.0 bin
neigh_modify    every 1 delay 0 check yes

# Setup minimization style
min_style	     cg
min_modify	     dmax ${dmax} line quadratic
min_modify	     dmax 0.01 line quadratic

# Setup output
thermo		1
thermo_style custom step temp pe press pxx pyy pzz pxy pxz pyz lx ly lz vol
thermo_modify norm no
#run             1000
run 0
Per MPI rank memory allocation (min/avg/max) = 3.005 | 3.005 | 3.005 Mbytes
Step Temp PotEng Press Pxx Pyy Pzz Pxy Pxz Pyz Lx Ly Lz Volume 
     382           10   -80847.933    23905.202    21622.129    24051.077    26042.401   -427.11643   -5134.8861     697.2559    7.0231519    7.0231519    7.0231519     346.4146 
Loop time of 4.29153e-06 on 1 procs for 0 steps with 32 atoms

139.8% CPU use with 1 MPI tasks x no OpenMP threads

MPI task timing breakdown:
Section |  min time  |  avg time  |  max time  |%varavg| %total
---------------------------------------------------------------
Pair    | 0          | 0          | 0          |   0.0 |  0.00
Neigh   | 0          | 0          | 0          |   0.0 |  0.00
Comm    | 0          | 0          | 0          |   0.0 |  0.00
Output  | 0          | 0          | 0          |   0.0 |  0.00
Modify  | 0          | 0          | 0          |   0.0 |  0.00
Other   |            | 4.292e-06  |            |       |100.00

Nlocal:        32.0000 ave          32 max          32 min
Histogram: 1 0 0 0 0 0 0 0 0 0
Nghost:        1340.00 ave        1340 max        1340 min
Histogram: 1 0 0 0 0 0 0 0 0 0
Neighs:        3197.00 ave        3197 max        3197 min
Histogram: 1 0 0 0 0 0 0 0 0 0

Total # of neighbors = 3197
Ave neighs/atom = 99.906250
Neighbor list builds = 0
Dangerous builds = 0

# Positive deformation

variable delta equal ${up}*${len0}
variable delta equal 0.1*${len0}
variable delta equal 0.1*7.02315192302752
variable deltaxy equal ${up}*xy
variable deltaxy equal 0.1*xy
variable deltaxz equal ${up}*xz
variable deltaxz equal 0.1*xz
variable deltayz equal ${up}*yz
variable deltayz equal 0.1*yz
if "${dir} == 1" then    "change_box all x delta 0 ${delta} xy delta ${deltaxy} xz delta ${deltaxz} remap units box"
change_box all x delta 0 ${delta} xy delta ${deltaxy} xz delta ${deltaxz} remap units box
change_box all x delta 0 0.702315192302752 xy delta ${deltaxy} xz delta ${deltaxz} remap units box
change_box all x delta 0 0.702315192302752 xy delta 0 xz delta ${deltaxz} remap units box
change_box all x delta 0 0.702315192302752 xy delta 0 xz delta 0 remap units box
Changing box ...
  triclinic box = (0.13842404 0.13842404 0.13842404) to (7.8638912 7.1615760 7.1615760) with tilt (0.0000000 0.0000000 0.0000000)
  triclinic box = (0.13842404 0.13842404 0.13842404) to (7.8638912 7.1615760 7.1615760) with tilt (0.0000000 0.0000000 0.0000000)
  triclinic box = (0.13842404 0.13842404 0.13842404) to (7.8638912 7.1615760 7.1615760) with tilt (0.0000000 0.0000000 0.0000000)
if "${dir} == 2" then    "change_box all y delta 0 ${delta} yz delta ${deltayz} remap units box"
if "${dir} == 3" then    "change_box all z delta 0 ${delta} remap units box"
if "${dir} == 4" then    "change_box all yz delta ${delta} remap units box"
if "${dir} == 5" then    "change_box all xz delta ${delta} remap units box"
if "${dir} == 6" then    "change_box all xy delta ${delta} remap units box"

# Relax atoms positions

minimize ${etol} ${ftol} ${maxiter} ${maxeval}
minimize 0 ${ftol} ${maxiter} ${maxeval}
minimize 0 1e-10 ${maxiter} ${maxeval}
minimize 0 1e-10 1000 ${maxeval}
minimize 0 1e-10 1000 10000
Per MPI rank memory allocation (min/avg/max) = 4.130 | 4.130 | 4.130 Mbytes
Step Temp PotEng Press Pxx Pyy Pzz Pxy Pxz Pyz Lx Ly Lz Volume 
     382           10   -80845.969   -130711.24   -183872.69   -104811.35   -103449.67   -411.49638    -3219.685     335.5758    7.7254671    7.0231519    7.0231519    381.05606 
     383           10   -80846.138   -133409.43   -186263.07   -107578.68   -106386.54   -404.62928   -2673.4865    498.57271    7.7254671    7.0231519    7.0231519    381.05606 
     384           10   -80846.296   -135963.43   -188518.67   -110193.47   -109178.14   -381.43048   -2150.3181     598.6954    7.7254671    7.0231519    7.0231519    381.05606 
     385           10   -80846.442   -138372.19   -190637.67   -112657.99   -111820.92   -342.20215   -1658.6807    643.38971    7.7254671    7.0231519    7.0231519    381.05606 
     386           10   -80846.578   -140630.78   -192620.35    -114968.1   -114303.88   -288.07372   -1208.6018    636.77971    7.7254671    7.0231519    7.0231519    381.05606 
     387           10   -80846.697   -142652.05   -194400.13   -117031.73   -116524.27   -224.88765   -824.12973    583.46716    7.7254671    7.0231519    7.0231519    381.05606 
     388           10   -80846.797   -144386.94   -195947.27   -118793.14   -118420.43   -159.44117   -517.19844    493.79173    7.7254671    7.0231519    7.0231519    381.05606 
     389           10    -80846.88    -145855.1   -197289.08   -120267.41    -120008.8    -96.99728   -284.13764    379.17914    7.7254671    7.0231519    7.0231519    381.05606 
     390           10   -80846.948   -147076.67   -198454.83   -121470.04   -121305.14   -42.620718   -120.35704    252.39251    7.7254671    7.0231519    7.0231519    381.05606 
     391           10   -80846.995    -147939.4   -199331.46   -122294.61   -122192.12   -6.1745645   -32.199358    145.38006    7.7254671    7.0231519    7.0231519    381.05606 
     392           10   -80847.027   -148525.71   -199973.38   -122832.09   -122771.64    14.477476    6.0217706    69.501337    7.7254671    7.0231519    7.0231519    381.05606 
     393           10   -80847.048   -148923.72   -200447.23   -123181.07   -123142.87    24.074288    16.729417    23.495133    7.7254671    7.0231519    7.0231519    381.05606 
     394           10   -80847.061   -149174.04   -200772.59   -123392.27   -123357.27    26.791126    14.486856    4.0214814    7.7254671    7.0231519    7.0231519    381.05606 
     395           10   -80847.069   -149333.82   -200994.35   -123522.59   -123484.53    26.295163    8.7643847    1.6153251    7.7254671    7.0231519    7.0231519    381.05606 
     396           10   -80847.074    -149427.7   -201137.53    -123596.7   -123548.87    23.895462     3.408488    8.6420331    7.7254671    7.0231519    7.0231519    381.05606 
     397           10   -80847.076   -149454.48   -201196.09   -123610.34      -123557    20.004481    1.0125345    15.826665    7.7254671    7.0231519    7.0231519    381.05606 
     398           10   -80847.076   -149455.37   -201198.08   -123610.62   -123557.41    19.870854     1.117778    16.170726    7.7254671    7.0231519    7.0231519    381.05606 
     399           10   -80847.076   -149455.51   -201198.34   -123610.69   -123557.49    19.884577    1.0966793    16.212822    7.7254671    7.0231519    7.0231519    381.05606 
     400           10   -80847.076   -149455.53   -201198.38   -123610.71    -123557.5     19.90024    1.0813778    16.213029    7.7254671    7.0231519    7.0231519    381.05606 
     401           10   -80847.076   -149455.54   -201198.39   -123610.72   -123557.51    19.912956     1.071641      16.2125    7.7254671    7.0231519    7.0231519    381.05606 
     402           10   -80847.076   -149455.54   -201198.39   -123610.72   -123557.51    19.916615    1.0701565    16.212743    7.7254671    7.0231519    7.0231519    381.05606 
     403           10   -80847.076   -149455.54   -201198.39   -123610.72   -123557.51    19.918608    1.0695809    16.212865    7.7254671    7.0231519    7.0231519    381.05606 
     404           10   -80847.076   -149455.54   -201198.39   -123610.72   -123557.51    19.919448    1.0692043    16.212897    7.7254671    7.0231519    7.0231519    381.05606 
     405           10   -80847.076   -149455.54   -201198.39   -123610.72   -123557.51    19.919685    1.0689432    16.212887    7.7254671    7.0231519    7.0231519    381.05606 
     406           10   -80847.076   -149455.54   -201198.39   -123610.72   -123557.51     19.91964     1.068936     16.21288    7.7254671    7.0231519    7.0231519    381.05606 
     407           10   -80847.076   -149455.54   -201198.39   -123610.72   -123557.51    19.919565    1.0689669    16.212877    7.7254671    7.0231519    7.0231519    381.05606 
     408           10   -80847.076   -149455.54   -201198.39   -123610.72   -123557.51    19.919526    1.0689941    16.212878    7.7254671    7.0231519    7.0231519    381.05606 
     409           10   -80847.076   -149455.54   -201198.39   -123610.72   -123557.51    19.919514    1.0690041    16.212879    7.7254671    7.0231519    7.0231519    381.05606 
     410           10   -80847.076   -149455.54   -201198.39   -123610.72   -123557.51    19.919509    1.0690089    16.212879    7.7254671    7.0231519    7.0231519    381.05606 
     411           10   -80847.076   -149455.54   -201198.39   -123610.72   -123557.51    19.919507    1.0690097    16.212879    7.7254671    7.0231519    7.0231519    381.05606 
     412           10   -80847.076   -149455.54   -201198.39   -123610.72   -123557.51    19.919506    1.0690098    16.212879    7.7254671    7.0231519    7.0231519    381.05606 
     413           10   -80847.076   -149455.54   -201198.39   -123610.72   -123557.51    19.919506    1.0690098    16.212879    7.7254671    7.0231519    7.0231519    381.05606 
     414           10   -80847.076   -149455.54   -201198.39   -123610.72   -123557.51    19.919506    1.0690098    16.212879    7.7254671    7.0231519    7.0231519    381.05606 
     415           10   -80847.076   -149455.54   -201198.39   -123610.72   -123557.51    19.919506    1.0690098    16.212879    7.7254671    7.0231519    7.0231519    381.05606 
     416           10   -80847.076   -149455.54   -201198.39   -123610.72   -123557.51    19.919506    1.0690098    16.212879    7.7254671    7.0231519    7.0231519    381.05606 
     417           10   -80847.076   -149455.54   -201198.39   -123610.72   -123557.51    19.919506    1.0690098    16.212879    7.7254671    7.0231519    7.0231519    381.05606 
Loop time of 2.88411 on 1 procs for 35 steps with 32 atoms

98.3% CPU use with 1 MPI tasks x no OpenMP threads

Minimization stats:
  Stopping criterion = force tolerance
  Energy initial, next-to-last, final = 
     -80845.9691139626  -80847.0756912648  -80847.0756912648
  Force two-norm initial, final = 4.6737779 6.9672760e-11
  Force max component initial, final = 1.2289054 2.3545356e-11
  Final line search alpha, max atom move = 1.0000000 2.3545356e-11
  Iterations, force evaluations = 35 56

MPI task timing breakdown:
Section |  min time  |  avg time  |  max time  |%varavg| %total
---------------------------------------------------------------
Pair    | 0.00038862 | 0.00038862 | 0.00038862 |   0.0 |  0.01
Neigh   | 0          | 0          | 0          |   0.0 |  0.00
Comm    | 0.00068951 | 0.00068951 | 0.00068951 |   0.0 |  0.02
Output  | 0.0020523  | 0.0020523  | 0.0020523  |   0.0 |  0.07
Modify  | 2.8801     | 2.8801     | 2.8801     |   0.0 | 99.86
Other   |            | 0.0008779  |            |       |  0.03

Nlocal:        32.0000 ave          32 max          32 min
Histogram: 1 0 0 0 0 0 0 0 0 0
Nghost:        1144.00 ave        1144 max        1144 min
Histogram: 1 0 0 0 0 0 0 0 0 0
Neighs:        2889.00 ave        2889 max        2889 min
Histogram: 1 0 0 0 0 0 0 0 0 0

Total # of neighbors = 2889
Ave neighs/atom = 90.281250
Neighbor list builds = 0
Dangerous builds = 0

# Obtain new stress tensor

variable tmp equal pe
variable e1 equal ${tmp}
variable e1 equal -80847.0756912648
variable tmp equal press
variable p1 equal ${tmp}
variable p1 equal -149455.540919578
variable tmp equal pxx
variable pxx1 equal ${tmp}
variable pxx1 equal -201198.393363282
variable tmp equal pyy
variable pyy1 equal ${tmp}
variable pyy1 equal -123610.717189661
variable tmp equal pzz
variable pzz1 equal ${tmp}
variable pzz1 equal -123557.512205791
variable tmp equal pxy
variable pxy1 equal ${tmp}
variable pxy1 equal 19.9195064380857
variable tmp equal pxz
variable pxz1 equal ${tmp}
variable pxz1 equal 1.06900979051013
variable tmp equal pyz
variable pyz1 equal ${tmp}
variable pyz1 equal 16.2128788104226

# Compute elastic constant from pressure tensor

variable C1pos equal ${d1}
variable C1pos equal 201.33330022048
variable C2pos equal ${d2}
variable C2pos equal 123.704416168728
variable C3pos equal ${d3}
variable C3pos equal 123.709736667116
variable C4pos equal ${d4}
variable C4pos equal 0.0016212878810646
variable C5pos equal ${d5}
variable C5pos equal 0.00010690097823192
variable C6pos equal ${d6}
variable C6pos equal 0.0019919506434384

# Combine positive and negative

variable C1${dir} equal 0.5*(${C1neg}+${C1pos})
variable C11 equal 0.5*(${C1neg}+${C1pos})
variable C11 equal 0.5*(359.5293967182+${C1pos})
variable C11 equal 0.5*(359.5293967182+201.33330022048)
variable C2${dir} equal 0.5*(${C2neg}+${C2pos})
variable C21 equal 0.5*(${C2neg}+${C2pos})
variable C21 equal 0.5*(271.400069049653+${C2pos})
variable C21 equal 0.5*(271.400069049653+123.704416168728)
variable C3${dir} equal 0.5*(${C3neg}+${C3pos})
variable C31 equal 0.5*(${C3neg}+${C3pos})
variable C31 equal 0.5*(271.406571787748+${C3pos})
variable C31 equal 0.5*(271.406571787748+123.709736667116)
variable C4${dir} equal 0.5*(${C4neg}+${C4pos})
variable C41 equal 0.5*(${C4neg}+${C4pos})
variable C41 equal 0.5*(0.0019814527501169+${C4pos})
variable C41 equal 0.5*(0.0019814527501169+0.0016212878810646)
variable C5${dir} equal 0.5*(${C5neg}+${C5pos})
variable C51 equal 0.5*(${C5neg}+${C5pos})
variable C51 equal 0.5*(0.00012861741566762+${C5pos})
variable C51 equal 0.5*(0.00012861741566762+0.00010690097823192)
variable C6${dir} equal 0.5*(${C6neg}+${C6pos})
variable C61 equal 0.5*(${C6neg}+${C6pos})
variable C61 equal 0.5*(0.0024364376239525+${C6pos})
variable C61 equal 0.5*(0.0024364376239525+0.0019919506434384)

# Delete dir to make sure it is not reused

variable dir delete

# uyy Perturbation

variable dir equal 2
include displace.mod
# NOTE: This script should not need to be
# modified. See in.elastic for more info.
#
# Find which reference length to use

if "${dir} == 1" then    "variable len0 equal ${lx0}"
if "${dir} == 2" then    "variable len0 equal ${ly0}"
variable len0 equal ${ly0}
variable len0 equal 7.02315192302752
if "${dir} == 3" then    "variable len0 equal ${lz0}"
if "${dir} == 4" then    "variable len0 equal ${lz0}"
if "${dir} == 5" then    "variable len0 equal ${lz0}"
if "${dir} == 6" then    "variable len0 equal ${ly0}"

# Reset box and simulation parameters

clear
box tilt large
read_restart restart.equil
Reading restart file ...
  restart file = 29 Oct 2020, LAMMPS = 29 Oct 2020
  restoring atom style atomic from restart
  triclinic box = (0.13842404 0.13842404 0.13842404) to (7.1615760 7.1615760 7.1615760) with tilt (0.0000000 0.0000000 0.0000000)
  1 by 1 by 1 MPI processor grid
  restoring pair style zero from restart
  32 atoms
  read_restart CPU = 0.000 seconds
include potential.mod
# NOTE: This script can be modified for different pair styles
# See in.elastic for more info.

# Choose potential
#pair_style	sw
#pair_coeff * * Si.sw Si

pair_style      zero 7.0
pair_coeff	* *

fix             integ all nve
python          post_force_callback file animpiuq.py
fix             2 all python/torch 1 post_force post_force_callback
fix_modify      2 energy yes
run             0
Neighbor list info ...
  update every 1 steps, delay 10 steps, check yes
  max neighbors/atom: 2000, page size: 100000
  master list distance cutoff = 9
  ghost atom cutoff = 9
  binsize = 4.5, bins = 2 2 2
  1 neighbor lists, perpetual/occasional/extra = 1 0 0
  (1) pair zero, perpetual
      attributes: half, newton on
      pair build: half/bin/newton/tri
      stencil: half/bin/3d/newton/tri
      bin: standard
Per MPI rank memory allocation (min/avg/max) = 3.005 | 3.005 | 3.005 Mbytes
Step Temp E_pair E_mol TotEng Press 
     382           10            0            0   -80847.893    23905.202 
Loop time of 4.29153e-06 on 1 procs for 0 steps with 32 atoms

116.5% CPU use with 1 MPI tasks x no OpenMP threads

MPI task timing breakdown:
Section |  min time  |  avg time  |  max time  |%varavg| %total
---------------------------------------------------------------
Pair    | 0          | 0          | 0          |   0.0 |  0.00
Neigh   | 0          | 0          | 0          |   0.0 |  0.00
Comm    | 0          | 0          | 0          |   0.0 |  0.00
Output  | 0          | 0          | 0          |   0.0 |  0.00
Modify  | 0          | 0          | 0          |   0.0 |  0.00
Other   |            | 4.292e-06  |            |       |100.00

Nlocal:        32.0000 ave          32 max          32 min
Histogram: 1 0 0 0 0 0 0 0 0 0
Nghost:        1340.00 ave        1340 max        1340 min
Histogram: 1 0 0 0 0 0 0 0 0 0
Neighs:        4782.00 ave        4782 max        4782 min
Histogram: 1 0 0 0 0 0 0 0 0 0

Total # of neighbors = 4782
Ave neighs/atom = 149.43750
Neighbor list builds = 0
Dangerous builds = 0
# Setup neighbor style
#neighbor 1.0 nsq
#neigh_modify once no every 1 delay 0 check yes
neighbor        1.0 bin
neigh_modify    every 1 delay 0 check yes

# Setup minimization style
min_style	     cg
min_modify	     dmax ${dmax} line quadratic
min_modify	     dmax 0.01 line quadratic

# Setup output
thermo		1
thermo_style custom step temp pe press pxx pyy pzz pxy pxz pyz lx ly lz vol
thermo_modify norm no
#run             1000
run 0
Per MPI rank memory allocation (min/avg/max) = 3.005 | 3.005 | 3.005 Mbytes
Step Temp PotEng Press Pxx Pyy Pzz Pxy Pxz Pyz Lx Ly Lz Volume 
     382           10   -80847.933    23905.202    21622.129    24051.077    26042.401   -427.11643   -5134.8861     697.2559    7.0231519    7.0231519    7.0231519     346.4146 
Loop time of 4.52995e-06 on 1 procs for 0 steps with 32 atoms

132.5% CPU use with 1 MPI tasks x no OpenMP threads

MPI task timing breakdown:
Section |  min time  |  avg time  |  max time  |%varavg| %total
---------------------------------------------------------------
Pair    | 0          | 0          | 0          |   0.0 |  0.00
Neigh   | 0          | 0          | 0          |   0.0 |  0.00
Comm    | 0          | 0          | 0          |   0.0 |  0.00
Output  | 0          | 0          | 0          |   0.0 |  0.00
Modify  | 0          | 0          | 0          |   0.0 |  0.00
Other   |            | 4.53e-06   |            |       |100.00

Nlocal:        32.0000 ave          32 max          32 min
Histogram: 1 0 0 0 0 0 0 0 0 0
Nghost:        1340.00 ave        1340 max        1340 min
Histogram: 1 0 0 0 0 0 0 0 0 0
Neighs:        3197.00 ave        3197 max        3197 min
Histogram: 1 0 0 0 0 0 0 0 0 0

Total # of neighbors = 3197
Ave neighs/atom = 99.906250
Neighbor list builds = 0
Dangerous builds = 0

# Negative deformation

variable delta equal -${up}*${len0}
variable delta equal -0.1*${len0}
variable delta equal -0.1*7.02315192302752
variable deltaxy equal -${up}*xy
variable deltaxy equal -0.1*xy
variable deltaxz equal -${up}*xz
variable deltaxz equal -0.1*xz
variable deltayz equal -${up}*yz
variable deltayz equal -0.1*yz
if "${dir} == 1" then    "change_box all x delta 0 ${delta} xy delta ${deltaxy} xz delta ${deltaxz} remap units box"
if "${dir} == 2" then    "change_box all y delta 0 ${delta} yz delta ${deltayz} remap units box"
change_box all y delta 0 ${delta} yz delta ${deltayz} remap units box
change_box all y delta 0 -0.702315192302752 yz delta ${deltayz} remap units box
change_box all y delta 0 -0.702315192302752 yz delta -0 remap units box
Changing box ...
  triclinic box = (0.13842404 0.13842404 0.13842404) to (7.1615760 6.4592608 7.1615760) with tilt (0.0000000 0.0000000 0.0000000)
  triclinic box = (0.13842404 0.13842404 0.13842404) to (7.1615760 6.4592608 7.1615760) with tilt (0.0000000 0.0000000 0.0000000)
if "${dir} == 3" then    "change_box all z delta 0 ${delta} remap units box"
if "${dir} == 4" then    "change_box all yz delta ${delta} remap units box"
if "${dir} == 5" then    "change_box all xz delta ${delta} remap units box"
if "${dir} == 6" then    "change_box all xy delta ${delta} remap units box"

# Relax atoms positions

minimize ${etol} ${ftol} ${maxiter} ${maxeval}
minimize 0 ${ftol} ${maxiter} ${maxeval}
minimize 0 1e-10 ${maxiter} ${maxeval}
minimize 0 1e-10 1000 ${maxeval}
minimize 0 1e-10 1000 10000
Per MPI rank memory allocation (min/avg/max) = 4.130 | 4.130 | 4.130 Mbytes
Step Temp PotEng Press Pxx Pyy Pzz Pxy Pxz Pyz Lx Ly Lz Volume 
     382           10   -80843.666    329625.15    298610.64    386167.26    304097.56   -310.48339    -5236.574     549.8043    7.0231519    6.3208367    7.0231519    311.77314 
     383           10   -80844.007    324637.29    293973.71    381085.04    298853.13   -177.17182   -4360.9769    817.49516    7.0231519    6.3208367    7.0231519    311.77314 
     384           10   -80844.311    320252.92    289910.87    376642.57    294205.33   -52.638598   -3563.7918    980.91002    7.0231519    6.3208367    7.0231519    311.77314 
     385           10   -80844.579    316435.06    286403.24     372794.5    290107.44    57.886425   -2841.2965    1052.2532    7.0231519    6.3208367    7.0231519    311.77314 
     386           10   -80844.814    313128.41     283366.9    369502.82    286515.49    148.01781    -2191.558     1045.438    7.0231519    6.3208367    7.0231519    311.77314 
     387           10   -80845.018    310292.59    280763.37    366725.82    283388.59    214.15224   -1614.5734    976.08107    7.0231519    6.3208367    7.0231519    311.77314 
     388           10   -80845.194    307884.16     278556.8    364423.67       280672    253.99743   -1112.9199    858.64393    7.0231519    6.3208367    7.0231519    311.77314 
     389           10   -80845.344    305865.28    276716.27    362563.21    278316.36    264.62935   -690.87136    706.56004    7.0231519    6.3208367    7.0231519    311.77314 
     390           10    -80845.47    304181.26    275169.77     361112.4    276261.62    244.70862   -356.19077    531.29153    7.0231519    6.3208367    7.0231519    311.77314 
     391           10    -80845.56       302999    274046.12    360200.82    274750.07    202.29255   -156.22999    371.54219    7.0231519    6.3208367    7.0231519    311.77314 
     392           10    -80845.62    302189.52    273234.37    359688.35    273645.85    153.46011   -60.813853    243.71388    7.0231519    6.3208367    7.0231519    311.77314 
     393           10   -80845.661    301610.45    272595.19    359429.38    272806.78    108.21664   -25.164478     146.1339    7.0231519    6.3208367    7.0231519    311.77314 
     394           10   -80845.687    301234.96    272125.66     359351.6    272227.61    72.733083   -16.217837    79.445881    7.0231519    6.3208367    7.0231519    311.77314 
     395           10   -80845.702    301015.68    271800.57    359393.81    271852.66    47.414203   -11.226735    41.181787    7.0231519    6.3208367    7.0231519    311.77314 
     396           10   -80845.709    300918.56    271603.48    359502.96    271649.24    28.424132   -5.2808082    23.260288    7.0231519    6.3208367    7.0231519    311.77314 
     397           10   -80845.712    300905.25    271546.51    359605.69    271563.53    24.262348   0.55672764    20.030685    7.0231519    6.3208367    7.0231519    311.77314 
     398           10   -80845.712    300905.71     271543.4    359611.74       271562    24.372186   0.48880763    20.011673    7.0231519    6.3208367    7.0231519    311.77314 
     399           10   -80845.712    300905.68     271540.6    359616.43    271560.02    24.354903    1.2359882    19.742502    7.0231519    6.3208367    7.0231519    311.77314 
     400           10   -80845.712    300905.67    271539.76    359618.19    271559.08    24.330266    1.2447976    19.789479    7.0231519    6.3208367    7.0231519    311.77314 
     401           10   -80845.712    300905.65    271539.62    359618.47    271558.86    24.354803    1.2987711    19.828046    7.0231519    6.3208367    7.0231519    311.77314 
     402           10   -80845.712    300905.63    271539.57    359618.52    271558.81    24.345528     1.306243    19.822414    7.0231519    6.3208367    7.0231519    311.77314 
     403           10   -80845.712    300905.63    271539.56    359618.52     271558.8    24.344614    1.3092283    19.817733    7.0231519    6.3208367    7.0231519    311.77314 
     404           10   -80845.712    300905.63    271539.56    359618.52     271558.8    24.345642    1.3078193    19.813304    7.0231519    6.3208367    7.0231519    311.77314 
     405           10   -80845.712    300905.63    271539.56    359618.52     271558.8    24.347024     1.306667    19.815304    7.0231519    6.3208367    7.0231519    311.77314 
     406           10   -80845.712    300905.63    271539.56    359618.52     271558.8    24.347024     1.306667    19.815304    7.0231519    6.3208367    7.0231519    311.77314 
Loop time of 2.77814 on 1 procs for 24 steps with 32 atoms

99.5% CPU use with 1 MPI tasks x no OpenMP threads

Minimization stats:
  Stopping criterion = linesearch alpha is zero
  Energy initial, next-to-last, final = 
     -80843.6659947475  -80845.7119152567  -80845.7119152567
  Force two-norm initial, final = 9.3407863 0.00037503923
  Force max component initial, final = 2.4132234 0.00010147454
  Final line search alpha, max atom move = 0.0625 6.3421590e-06
  Iterations, force evaluations = 24 41

MPI task timing breakdown:
Section |  min time  |  avg time  |  max time  |%varavg| %total
---------------------------------------------------------------
Pair    | 0.0004127  | 0.0004127  | 0.0004127  |   0.0 |  0.01
Neigh   | 0          | 0          | 0          |   0.0 |  0.00
Comm    | 0.00071168 | 0.00071168 | 0.00071168 |   0.0 |  0.03
Output  | 0.0016472  | 0.0016472  | 0.0016472  |   0.0 |  0.06
Modify  | 2.7746     | 2.7746     | 2.7746     |   0.0 | 99.87
Other   |            | 0.0007393  |            |       |  0.03

Nlocal:        32.0000 ave          32 max          32 min
Histogram: 1 0 0 0 0 0 0 0 0 0
Nghost:        1340.00 ave        1340 max        1340 min
Histogram: 1 0 0 0 0 0 0 0 0 0
Neighs:        3488.00 ave        3488 max        3488 min
Histogram: 1 0 0 0 0 0 0 0 0 0

Total # of neighbors = 3488
Ave neighs/atom = 109.00000
Neighbor list builds = 0
Dangerous builds = 0

# Obtain new stress tensor

variable tmp equal pxx
variable pxx1 equal ${tmp}
variable pxx1 equal 271539.558212715
variable tmp equal pyy
variable pyy1 equal ${tmp}
variable pyy1 equal 359618.518567647
variable tmp equal pzz
variable pzz1 equal ${tmp}
variable pzz1 equal 271558.800074817
variable tmp equal pxy
variable pxy1 equal ${tmp}
variable pxy1 equal 24.347024062478
variable tmp equal pxz
variable pxz1 equal ${tmp}
variable pxz1 equal 1.30666703263331
variable tmp equal pyz
variable pyz1 equal ${tmp}
variable pyz1 equal 19.8153037676979

# Compute elastic constant from pressure tensor

variable C1neg equal ${d1}
variable C1neg equal 271.404651355517
variable C2neg equal ${d2}
variable C2neg equal 359.52481958858
variable C3neg equal ${d3}
variable C3neg equal 271.406575613492
variable C4neg equal ${d4}
variable C4neg equal 0.0019811370762107
variable C5neg equal ${d5}
variable C5neg equal 0.00013075626389126
variable C6neg equal ${d6}
variable C6neg equal 0.0024355669809539

# Reset box and simulation parameters

clear
box tilt large
read_restart restart.equil
Reading restart file ...
  restart file = 29 Oct 2020, LAMMPS = 29 Oct 2020
  restoring atom style atomic from restart
  triclinic box = (0.13842404 0.13842404 0.13842404) to (7.1615760 7.1615760 7.1615760) with tilt (0.0000000 0.0000000 0.0000000)
  1 by 1 by 1 MPI processor grid
  restoring pair style zero from restart
  32 atoms
  read_restart CPU = 0.000 seconds
include potential.mod
# NOTE: This script can be modified for different pair styles
# See in.elastic for more info.

# Choose potential
#pair_style	sw
#pair_coeff * * Si.sw Si

pair_style      zero 7.0
pair_coeff	* *

fix             integ all nve
python          post_force_callback file animpiuq.py
fix             2 all python/torch 1 post_force post_force_callback
fix_modify      2 energy yes
run             0
Neighbor list info ...
  update every 1 steps, delay 10 steps, check yes
  max neighbors/atom: 2000, page size: 100000
  master list distance cutoff = 9
  ghost atom cutoff = 9
  binsize = 4.5, bins = 2 2 2
  1 neighbor lists, perpetual/occasional/extra = 1 0 0
  (1) pair zero, perpetual
      attributes: half, newton on
      pair build: half/bin/newton/tri
      stencil: half/bin/3d/newton/tri
      bin: standard
Per MPI rank memory allocation (min/avg/max) = 3.005 | 3.005 | 3.005 Mbytes
Step Temp E_pair E_mol TotEng Press 
     382           10            0            0   -80847.893    23905.202 
Loop time of 4.05312e-06 on 1 procs for 0 steps with 32 atoms

98.7% CPU use with 1 MPI tasks x no OpenMP threads

MPI task timing breakdown:
Section |  min time  |  avg time  |  max time  |%varavg| %total
---------------------------------------------------------------
Pair    | 0          | 0          | 0          |   0.0 |  0.00
Neigh   | 0          | 0          | 0          |   0.0 |  0.00
Comm    | 0          | 0          | 0          |   0.0 |  0.00
Output  | 0          | 0          | 0          |   0.0 |  0.00
Modify  | 0          | 0          | 0          |   0.0 |  0.00
Other   |            | 4.053e-06  |            |       |100.00

Nlocal:        32.0000 ave          32 max          32 min
Histogram: 1 0 0 0 0 0 0 0 0 0
Nghost:        1340.00 ave        1340 max        1340 min
Histogram: 1 0 0 0 0 0 0 0 0 0
Neighs:        4782.00 ave        4782 max        4782 min
Histogram: 1 0 0 0 0 0 0 0 0 0

Total # of neighbors = 4782
Ave neighs/atom = 149.43750
Neighbor list builds = 0
Dangerous builds = 0
# Setup neighbor style
#neighbor 1.0 nsq
#neigh_modify once no every 1 delay 0 check yes
neighbor        1.0 bin
neigh_modify    every 1 delay 0 check yes

# Setup minimization style
min_style	     cg
min_modify	     dmax ${dmax} line quadratic
min_modify	     dmax 0.01 line quadratic

# Setup output
thermo		1
thermo_style custom step temp pe press pxx pyy pzz pxy pxz pyz lx ly lz vol
thermo_modify norm no
#run             1000
run 0
Per MPI rank memory allocation (min/avg/max) = 3.005 | 3.005 | 3.005 Mbytes
Step Temp PotEng Press Pxx Pyy Pzz Pxy Pxz Pyz Lx Ly Lz Volume 
     382           10   -80847.933    23905.202    21622.129    24051.077    26042.401   -427.11643   -5134.8861     697.2559    7.0231519    7.0231519    7.0231519     346.4146 
Loop time of 4.05312e-06 on 1 procs for 0 steps with 32 atoms

123.4% CPU use with 1 MPI tasks x no OpenMP threads

MPI task timing breakdown:
Section |  min time  |  avg time  |  max time  |%varavg| %total
---------------------------------------------------------------
Pair    | 0          | 0          | 0          |   0.0 |  0.00
Neigh   | 0          | 0          | 0          |   0.0 |  0.00
Comm    | 0          | 0          | 0          |   0.0 |  0.00
Output  | 0          | 0          | 0          |   0.0 |  0.00
Modify  | 0          | 0          | 0          |   0.0 |  0.00
Other   |            | 4.053e-06  |            |       |100.00

Nlocal:        32.0000 ave          32 max          32 min
Histogram: 1 0 0 0 0 0 0 0 0 0
Nghost:        1340.00 ave        1340 max        1340 min
Histogram: 1 0 0 0 0 0 0 0 0 0
Neighs:        3197.00 ave        3197 max        3197 min
Histogram: 1 0 0 0 0 0 0 0 0 0

Total # of neighbors = 3197
Ave neighs/atom = 99.906250
Neighbor list builds = 0
Dangerous builds = 0

# Positive deformation

variable delta equal ${up}*${len0}
variable delta equal 0.1*${len0}
variable delta equal 0.1*7.02315192302752
variable deltaxy equal ${up}*xy
variable deltaxy equal 0.1*xy
variable deltaxz equal ${up}*xz
variable deltaxz equal 0.1*xz
variable deltayz equal ${up}*yz
variable deltayz equal 0.1*yz
if "${dir} == 1" then    "change_box all x delta 0 ${delta} xy delta ${deltaxy} xz delta ${deltaxz} remap units box"
if "${dir} == 2" then    "change_box all y delta 0 ${delta} yz delta ${deltayz} remap units box"
change_box all y delta 0 ${delta} yz delta ${deltayz} remap units box
change_box all y delta 0 0.702315192302752 yz delta ${deltayz} remap units box
change_box all y delta 0 0.702315192302752 yz delta 0 remap units box
Changing box ...
  triclinic box = (0.13842404 0.13842404 0.13842404) to (7.1615760 7.8638912 7.1615760) with tilt (0.0000000 0.0000000 0.0000000)
  triclinic box = (0.13842404 0.13842404 0.13842404) to (7.1615760 7.8638912 7.1615760) with tilt (0.0000000 0.0000000 0.0000000)
if "${dir} == 3" then    "change_box all z delta 0 ${delta} remap units box"
if "${dir} == 4" then    "change_box all yz delta ${delta} remap units box"
if "${dir} == 5" then    "change_box all xz delta ${delta} remap units box"
if "${dir} == 6" then    "change_box all xy delta ${delta} remap units box"

# Relax atoms positions

minimize ${etol} ${ftol} ${maxiter} ${maxeval}
minimize 0 ${ftol} ${maxiter} ${maxeval}
minimize 0 1e-10 ${maxiter} ${maxeval}
minimize 0 1e-10 1000 ${maxeval}
minimize 0 1e-10 1000 10000
Per MPI rank memory allocation (min/avg/max) = 4.130 | 4.130 | 4.130 Mbytes
Step Temp PotEng Press Pxx Pyy Pzz Pxy Pxz Pyz Lx Ly Lz Volume 
     382           10   -80845.989   -131000.16    -106608.4    -183722.3   -102669.78    32.178798   -5119.3281    157.15191    7.0231519    7.7254671    7.0231519    381.05606 
     383           10   -80846.144   -133484.47    -109001.6    -185914.2   -105537.61    34.262586   -4211.4323    250.38791    7.0231519    7.7254671    7.0231519    381.05606 
     384           10   -80846.288   -135831.29   -111240.16   -187992.94   -108260.76    41.954232   -3382.7778    329.16015    7.0231519    7.7254671    7.0231519    381.05606 
     385           10   -80846.423   -138041.91   -113330.21   -189957.26   -110838.25    55.520728    -2626.503    389.07343    7.0231519    7.7254671    7.0231519    381.05606 
     386           10   -80846.544   -140080.57   -115244.14   -191775.38    -113222.2    72.858716   -1952.2651    426.29583    7.0231519    7.7254671    7.0231519    381.05606 
     387           10   -80846.654   -141945.33   -116984.14   -193450.18   -115401.69    92.276491   -1361.6489    438.99411    7.0231519    7.7254671    7.0231519    381.05606 
     388           10   -80846.752   -143641.94   -118554.35   -194996.02   -117375.44    111.29824   -857.93857    426.21974    7.0231519    7.7254671    7.0231519    381.05606 
     389           10    -80846.84    -145176.7   -119961.73   -196428.84   -119139.53    126.61868   -449.17649    388.48106    7.0231519    7.7254671    7.0231519    381.05606 
     390           10   -80846.917   -146556.55   -121209.06    -197769.5   -120691.11    133.94005    -147.7424    326.30381    7.0231519    7.7254671    7.0231519    381.05606 
     391           10   -80846.975   -147617.39   -122144.04   -198865.84   -121842.28    126.75469    8.0770987    252.07089    7.0231519    7.7254671    7.0231519    381.05606 
     392           10   -80847.015   -148339.95   -122757.25   -199674.89    -122587.7    106.41248    51.942229    181.73937    7.0231519    7.7254671    7.0231519    381.05606 
     393           10   -80847.041    -148831.7   -123153.06   -200278.24   -123063.82    78.406532    42.634789    120.04492    7.0231519    7.7254671    7.0231519    381.05606 
     394           10   -80847.059   -149159.35   -123394.94   -200726.98   -123356.14    48.858119    18.971522    69.132169    7.0231519    7.7254671    7.0231519    381.05606 
     395           10    -80847.07    -149361.8   -123526.36   -201049.99   -123509.04     25.17415    3.6004636    32.079877    7.0231519    7.7254671    7.0231519    381.05606 
     396           10   -80847.075   -149447.36   -123574.67   -201207.48   -123559.94     18.60764    1.3114955    18.246926    7.0231519    7.7254671    7.0231519    381.05606 
     397           10   -80847.076      -149454   -123572.18   -201233.79   -123556.04    19.930424    1.2442393    16.583381    7.0231519    7.7254671    7.0231519    381.05606 
     398           10   -80847.076   -149455.28   -123573.08   -201235.44   -123557.32    19.865089     1.068918    16.290759    7.0231519    7.7254671    7.0231519    381.05606 
     399           10   -80847.076   -149455.49   -123573.23   -201235.77   -123557.48    19.878966    1.0595287    16.222943    7.0231519    7.7254671    7.0231519    381.05606 
     400           10   -80847.076   -149455.54   -123573.25   -201235.85   -123557.51    19.897706    1.0687033    16.205613    7.0231519    7.7254671    7.0231519    381.05606 
     401           10   -80847.076   -149455.54   -123573.26   -201235.86   -123557.51    19.915647    1.0693658     16.21101    7.0231519    7.7254671    7.0231519    381.05606 
     402           10   -80847.076   -149455.54   -123573.26   -201235.86   -123557.51    19.915647    1.0693658     16.21101    7.0231519    7.7254671    7.0231519    381.05606 
Loop time of 2.03277 on 1 procs for 20 steps with 32 atoms

98.9% CPU use with 1 MPI tasks x no OpenMP threads

Minimization stats:
  Stopping criterion = linesearch alpha is zero
  Energy initial, next-to-last, final = 
       -80845.98883013   -80847.075691298   -80847.075691298
  Force two-norm initial, final = 4.7237217 0.0010791113
  Force max component initial, final = 1.3716034 0.00032497341
  Final line search alpha, max atom move = 0.0078125 2.5388547e-06
  Iterations, force evaluations = 20 39

MPI task timing breakdown:
Section |  min time  |  avg time  |  max time  |%varavg| %total
---------------------------------------------------------------
Pair    | 0.00026655 | 0.00026655 | 0.00026655 |   0.0 |  0.01
Neigh   | 0          | 0          | 0          |   0.0 |  0.00
Comm    | 0.00048494 | 0.00048494 | 0.00048494 |   0.0 |  0.02
Output  | 0.0011532  | 0.0011532  | 0.0011532  |   0.0 |  0.06
Modify  | 2.0302     | 2.0302     | 2.0302     |   0.0 | 99.88
Other   |            | 0.0006328  |            |       |  0.03

Nlocal:        32.0000 ave          32 max          32 min
Histogram: 1 0 0 0 0 0 0 0 0 0
Nghost:        1144.00 ave        1144 max        1144 min
Histogram: 1 0 0 0 0 0 0 0 0 0
Neighs:        2871.00 ave        2871 max        2871 min
Histogram: 1 0 0 0 0 0 0 0 0 0

Total # of neighbors = 2871
Ave neighs/atom = 89.718750
Neighbor list builds = 0
Dangerous builds = 0

# Obtain new stress tensor

variable tmp equal pe
variable e1 equal ${tmp}
variable e1 equal -80847.075691298
variable tmp equal press
variable p1 equal ${tmp}
variable p1 equal -149455.541882081
variable tmp equal pxx
variable pxx1 equal ${tmp}
variable pxx1 equal -123573.25657456
variable tmp equal pyy
variable pyy1 equal ${tmp}
variable pyy1 equal -201235.855777216
variable tmp equal pzz
variable pzz1 equal ${tmp}
variable pzz1 equal -123557.513294466
variable tmp equal pxy
variable pxy1 equal ${tmp}
variable pxy1 equal 19.9156470098286
variable tmp equal pxz
variable pxz1 equal ${tmp}
variable pxz1 equal 1.06936582567835
variable tmp equal pyz
variable pyz1 equal ${tmp}
variable pyz1 equal 16.2110103748067

# Compute elastic constant from pressure tensor

variable C1pos equal ${d1}
variable C1pos equal 123.708163431758
variable C2pos equal ${d2}
variable C2pos equal 201.329554756283
variable C3pos equal ${d3}
variable C3pos equal 123.709737755791
variable C4pos equal ${d4}
variable C4pos equal 0.0016231563166805
variable C5pos equal ${d5}
variable C5pos equal 0.0001065449430637
variable C6pos equal ${d6}
variable C6pos equal 0.0019958100716955

# Combine positive and negative

variable C1${dir} equal 0.5*(${C1neg}+${C1pos})
variable C12 equal 0.5*(${C1neg}+${C1pos})
variable C12 equal 0.5*(271.404651355517+${C1pos})
variable C12 equal 0.5*(271.404651355517+123.708163431758)
variable C2${dir} equal 0.5*(${C2neg}+${C2pos})
variable C22 equal 0.5*(${C2neg}+${C2pos})
variable C22 equal 0.5*(359.52481958858+${C2pos})
variable C22 equal 0.5*(359.52481958858+201.329554756283)
variable C3${dir} equal 0.5*(${C3neg}+${C3pos})
variable C32 equal 0.5*(${C3neg}+${C3pos})
variable C32 equal 0.5*(271.406575613492+${C3pos})
variable C32 equal 0.5*(271.406575613492+123.709737755791)
variable C4${dir} equal 0.5*(${C4neg}+${C4pos})
variable C42 equal 0.5*(${C4neg}+${C4pos})
variable C42 equal 0.5*(0.0019811370762107+${C4pos})
variable C42 equal 0.5*(0.0019811370762107+0.0016231563166805)
variable C5${dir} equal 0.5*(${C5neg}+${C5pos})
variable C52 equal 0.5*(${C5neg}+${C5pos})
variable C52 equal 0.5*(0.00013075626389126+${C5pos})
variable C52 equal 0.5*(0.00013075626389126+0.0001065449430637)
variable C6${dir} equal 0.5*(${C6neg}+${C6pos})
variable C62 equal 0.5*(${C6neg}+${C6pos})
variable C62 equal 0.5*(0.0024355669809539+${C6pos})
variable C62 equal 0.5*(0.0024355669809539+0.0019958100716955)

# Delete dir to make sure it is not reused

variable dir delete

# uzz Perturbation

variable dir equal 3
include displace.mod
# NOTE: This script should not need to be
# modified. See in.elastic for more info.
#
# Find which reference length to use

if "${dir} == 1" then    "variable len0 equal ${lx0}"
if "${dir} == 2" then    "variable len0 equal ${ly0}"
if "${dir} == 3" then    "variable len0 equal ${lz0}"
variable len0 equal ${lz0}
variable len0 equal 7.02315192302752
if "${dir} == 4" then    "variable len0 equal ${lz0}"
if "${dir} == 5" then    "variable len0 equal ${lz0}"
if "${dir} == 6" then    "variable len0 equal ${ly0}"

# Reset box and simulation parameters

clear
box tilt large
read_restart restart.equil
Reading restart file ...
  restart file = 29 Oct 2020, LAMMPS = 29 Oct 2020
  restoring atom style atomic from restart
  triclinic box = (0.13842404 0.13842404 0.13842404) to (7.1615760 7.1615760 7.1615760) with tilt (0.0000000 0.0000000 0.0000000)
  1 by 1 by 1 MPI processor grid
  restoring pair style zero from restart
  32 atoms
  read_restart CPU = 0.000 seconds
include potential.mod
# NOTE: This script can be modified for different pair styles
# See in.elastic for more info.

# Choose potential
#pair_style	sw
#pair_coeff * * Si.sw Si

pair_style      zero 7.0
pair_coeff	* *

fix             integ all nve
python          post_force_callback file animpiuq.py
fix             2 all python/torch 1 post_force post_force_callback
fix_modify      2 energy yes
run             0
Neighbor list info ...
  update every 1 steps, delay 10 steps, check yes
  max neighbors/atom: 2000, page size: 100000
  master list distance cutoff = 9
  ghost atom cutoff = 9
  binsize = 4.5, bins = 2 2 2
  1 neighbor lists, perpetual/occasional/extra = 1 0 0
  (1) pair zero, perpetual
      attributes: half, newton on
      pair build: half/bin/newton/tri
      stencil: half/bin/3d/newton/tri
      bin: standard
Per MPI rank memory allocation (min/avg/max) = 3.005 | 3.005 | 3.005 Mbytes
Step Temp E_pair E_mol TotEng Press 
     382           10            0            0   -80847.893    23905.202 
Loop time of 4.76837e-06 on 1 procs for 0 steps with 32 atoms

104.9% CPU use with 1 MPI tasks x no OpenMP threads

MPI task timing breakdown:
Section |  min time  |  avg time  |  max time  |%varavg| %total
---------------------------------------------------------------
Pair    | 0          | 0          | 0          |   0.0 |  0.00
Neigh   | 0          | 0          | 0          |   0.0 |  0.00
Comm    | 0          | 0          | 0          |   0.0 |  0.00
Output  | 0          | 0          | 0          |   0.0 |  0.00
Modify  | 0          | 0          | 0          |   0.0 |  0.00
Other   |            | 4.768e-06  |            |       |100.00

Nlocal:        32.0000 ave          32 max          32 min
Histogram: 1 0 0 0 0 0 0 0 0 0
Nghost:        1340.00 ave        1340 max        1340 min
Histogram: 1 0 0 0 0 0 0 0 0 0
Neighs:        4782.00 ave        4782 max        4782 min
Histogram: 1 0 0 0 0 0 0 0 0 0

Total # of neighbors = 4782
Ave neighs/atom = 149.43750
Neighbor list builds = 0
Dangerous builds = 0
# Setup neighbor style
#neighbor 1.0 nsq
#neigh_modify once no every 1 delay 0 check yes
neighbor        1.0 bin
neigh_modify    every 1 delay 0 check yes

# Setup minimization style
min_style	     cg
min_modify	     dmax ${dmax} line quadratic
min_modify	     dmax 0.01 line quadratic

# Setup output
thermo		1
thermo_style custom step temp pe press pxx pyy pzz pxy pxz pyz lx ly lz vol
thermo_modify norm no
#run             1000
run 0
Per MPI rank memory allocation (min/avg/max) = 3.005 | 3.005 | 3.005 Mbytes
Step Temp PotEng Press Pxx Pyy Pzz Pxy Pxz Pyz Lx Ly Lz Volume 
     382           10   -80847.933    23905.202    21622.129    24051.077    26042.401   -427.11643   -5134.8861     697.2559    7.0231519    7.0231519    7.0231519     346.4146 
Loop time of 4.05312e-06 on 1 procs for 0 steps with 32 atoms

123.4% CPU use with 1 MPI tasks x no OpenMP threads

MPI task timing breakdown:
Section |  min time  |  avg time  |  max time  |%varavg| %total
---------------------------------------------------------------
Pair    | 0          | 0          | 0          |   0.0 |  0.00
Neigh   | 0          | 0          | 0          |   0.0 |  0.00
Comm    | 0          | 0          | 0          |   0.0 |  0.00
Output  | 0          | 0          | 0          |   0.0 |  0.00
Modify  | 0          | 0          | 0          |   0.0 |  0.00
Other   |            | 4.053e-06  |            |       |100.00

Nlocal:        32.0000 ave          32 max          32 min
Histogram: 1 0 0 0 0 0 0 0 0 0
Nghost:        1340.00 ave        1340 max        1340 min
Histogram: 1 0 0 0 0 0 0 0 0 0
Neighs:        3197.00 ave        3197 max        3197 min
Histogram: 1 0 0 0 0 0 0 0 0 0

Total # of neighbors = 3197
Ave neighs/atom = 99.906250
Neighbor list builds = 0
Dangerous builds = 0

# Negative deformation

variable delta equal -${up}*${len0}
variable delta equal -0.1*${len0}
variable delta equal -0.1*7.02315192302752
variable deltaxy equal -${up}*xy
variable deltaxy equal -0.1*xy
variable deltaxz equal -${up}*xz
variable deltaxz equal -0.1*xz
variable deltayz equal -${up}*yz
variable deltayz equal -0.1*yz
if "${dir} == 1" then    "change_box all x delta 0 ${delta} xy delta ${deltaxy} xz delta ${deltaxz} remap units box"
if "${dir} == 2" then    "change_box all y delta 0 ${delta} yz delta ${deltayz} remap units box"
if "${dir} == 3" then    "change_box all z delta 0 ${delta} remap units box"
change_box all z delta 0 ${delta} remap units box
change_box all z delta 0 -0.702315192302752 remap units box
Changing box ...
  triclinic box = (0.13842404 0.13842404 0.13842404) to (7.1615760 7.1615760 6.4592608) with tilt (0.0000000 0.0000000 0.0000000)
if "${dir} == 4" then    "change_box all yz delta ${delta} remap units box"
if "${dir} == 5" then    "change_box all xz delta ${delta} remap units box"
if "${dir} == 6" then    "change_box all xy delta ${delta} remap units box"

# Relax atoms positions

minimize ${etol} ${ftol} ${maxiter} ${maxeval}
minimize 0 ${ftol} ${maxiter} ${maxeval}
minimize 0 1e-10 ${maxiter} ${maxeval}
minimize 0 1e-10 1000 ${maxeval}
minimize 0 1e-10 1000 10000
Per MPI rank memory allocation (min/avg/max) = 4.130 | 4.130 | 4.130 Mbytes
Step Temp PotEng Press Pxx Pyy Pzz Pxy Pxz Pyz Lx Ly Lz Volume 
     382           10     -80843.6    330567.62    299788.07    301990.04    389924.76    1056.5231   -7743.7601    207.89448    7.0231519    7.0231519    6.3208367    311.77314 
     383           10   -80843.936    325553.99    294990.14    297230.22     384441.6     972.2675   -6180.3852    509.11494    7.0231519    7.0231519    6.3208367    311.77314 
     384           10   -80844.242    321022.38    290682.87    292882.81    379501.45    893.48227   -4787.9209    732.34275    7.0231519    7.0231519    6.3208367    311.77314 
     385           10    -80844.52    316981.87     286884.8    288959.14    375101.68      815.119   -3575.7373    878.16973    7.0231519    7.0231519    6.3208367    311.77314 
     386           10    -80844.77    313410.61    283561.21    285436.67    371233.97    732.16601   -2546.1549    949.89523    7.0231519    7.0231519    6.3208367    311.77314 
     387           10    -80844.99    310333.37    280721.85    282352.36     367925.9    642.77208      -1706.3    952.95053    7.0231519    7.0231519    6.3208367    311.77314 
     388           10   -80845.181     307736.9    278365.79    279691.05    365153.86    545.28445   -1045.7972    896.45253    7.0231519    7.0231519    6.3208367    311.77314 
     389           10   -80845.345    305571.36    276428.68    277404.66    362880.75    439.74055   -549.60575    787.91815    7.0231519    7.0231519    6.3208367    311.77314 
     390           10    -80845.48    303834.82    274883.08     275494.1    361127.28    329.38113   -214.46297    635.29597    7.0231519    7.0231519    6.3208367    311.77314 
     391           10   -80845.571    302696.93    273852.06    274170.01    360068.71    235.58422     -52.9794    475.99852    7.0231519    7.0231519    6.3208367    311.77314 
     392           10   -80845.631    301948.71    273122.78     273237.1    359486.27    160.11109    7.5458563    323.97554    7.0231519    7.0231519    6.3208367    311.77314 
     393           10   -80845.667     301507.8    272634.79    272624.56    359264.05    108.85287    16.135767    201.25144    7.0231519    7.0231519    6.3208367    311.77314 
     394           10   -80845.689    301210.44    272224.52    272145.75    359261.04    76.706601    10.545874    109.10393    7.0231519    7.0231519    6.3208367    311.77314 
     395           10   -80845.703    300992.15    271847.08    271716.58     359412.8     55.91829    5.2469875    48.914359    7.0231519    7.0231519    6.3208367    311.77314 
     396           10    -80845.71    300902.74    271577.11    271520.97    359610.13    37.455279    3.6181463    26.949293    7.0231519    7.0231519    6.3208367    311.77314 
     397           10   -80845.711    300905.62    271549.84    271505.21     359661.8    28.374912    1.9216695    22.112503    7.0231519    7.0231519    6.3208367    311.77314 
     398           10   -80845.712     300905.9     271541.5     271497.5    359678.69    26.108277    1.2375541    20.674219    7.0231519    7.0231519    6.3208367    311.77314 
     399           10   -80845.712    300905.66    271540.37    271495.21     359681.4    24.622787    1.3614438    20.094194    7.0231519    7.0231519    6.3208367    311.77314 
     400           10   -80845.712    300905.73    271540.03    271494.23    359682.93    24.523986     1.294882    19.831689    7.0231519    7.0231519    6.3208367    311.77314 
     401           10   -80845.712    300905.64    271539.66     271493.8    359683.46    24.372902     1.329975    19.796402    7.0231519    7.0231519    6.3208367    311.77314 
     402           10   -80845.712    300905.63    271539.56    271493.76    359683.55    24.351752    1.3289782    19.802931    7.0231519    7.0231519    6.3208367    311.77314 
     403           10   -80845.712    300905.63    271539.56    271493.76    359683.55    24.351752    1.3289782    19.802931    7.0231519    7.0231519    6.3208367    311.77314 
Loop time of 3.43508 on 1 procs for 21 steps with 32 atoms

99.4% CPU use with 1 MPI tasks x no OpenMP threads

Minimization stats:
  Stopping criterion = linesearch alpha is zero
  Energy initial, next-to-last, final = 
     -80843.6004039082  -80845.7119147562  -80845.7119147562
  Force two-norm initial, final = 9.6879725 0.0061903229
  Force max component initial, final = 2.6524461 0.001492725
  Final line search alpha, max atom move = 0.00024414062 3.6443482e-07
  Iterations, force evaluations = 21 51

MPI task timing breakdown:
Section |  min time  |  avg time  |  max time  |%varavg| %total
---------------------------------------------------------------
Pair    | 0.0005064  | 0.0005064  | 0.0005064  |   0.0 |  0.01
Neigh   | 0          | 0          | 0          |   0.0 |  0.00
Comm    | 0.00084949 | 0.00084949 | 0.00084949 |   0.0 |  0.02
Output  | 0.0014582  | 0.0014582  | 0.0014582  |   0.0 |  0.04
Modify  | 3.4313     | 3.4313     | 3.4313     |   0.0 | 99.89
Other   |            | 0.0009239  |            |       |  0.03

Nlocal:        32.0000 ave          32 max          32 min
Histogram: 1 0 0 0 0 0 0 0 0 0
Nghost:        1340.00 ave        1340 max        1340 min
Histogram: 1 0 0 0 0 0 0 0 0 0
Neighs:        3489.00 ave        3489 max        3489 min
Histogram: 1 0 0 0 0 0 0 0 0 0

Total # of neighbors = 3489
Ave neighs/atom = 109.03125
Neighbor list builds = 0
Dangerous builds = 0

# Obtain new stress tensor

variable tmp equal pxx
variable pxx1 equal ${tmp}
variable pxx1 equal 271539.563162421
variable tmp equal pyy
variable pyy1 equal ${tmp}
[...]
---------------------------------------------------------------
Pair    | 0          | 0          | 0          |   0.0 |  0.00
Neigh   | 0          | 0          | 0          |   0.0 |  0.00
Comm    | 0          | 0          | 0          |   0.0 |  0.00
Output  | 0          | 0          | 0          |   0.0 |  0.00
Modify  | 0          | 0          | 0          |   0.0 |  0.00
Other   |            | 3.576e-06  |            |       |100.00

Nlocal:        32.0000 ave          32 max          32 min
Histogram: 1 0 0 0 0 0 0 0 0 0
Nghost:        1340.00 ave        1340 max        1340 min
Histogram: 1 0 0 0 0 0 0 0 0 0
Neighs:        4782.00 ave        4782 max        4782 min
Histogram: 1 0 0 0 0 0 0 0 0 0

Total # of neighbors = 4782
Ave neighs/atom = 149.43750
Neighbor list builds = 0
Dangerous builds = 0
# Setup neighbor style
#neighbor 1.0 nsq
#neigh_modify once no every 1 delay 0 check yes
neighbor        1.0 bin
neigh_modify    every 1 delay 0 check yes

# Setup minimization style
min_style	     cg
min_modify	     dmax ${dmax} line quadratic
min_modify	     dmax 0.01 line quadratic

# Setup output
thermo		1
thermo_style custom step temp pe press pxx pyy pzz pxy pxz pyz lx ly lz vol
thermo_modify norm no
#run             1000
run 0
Per MPI rank memory allocation (min/avg/max) = 3.005 | 3.005 | 3.005 Mbytes
Step Temp PotEng Press Pxx Pyy Pzz Pxy Pxz Pyz Lx Ly Lz Volume 
     382           10   -80847.933    23905.202    21622.129    24051.077    26042.401   -427.11643   -5134.8861     697.2559    7.0231519    7.0231519    7.0231519     346.4146 
Loop time of 4.52995e-06 on 1 procs for 0 steps with 32 atoms

132.5% CPU use with 1 MPI tasks x no OpenMP threads

MPI task timing breakdown:
Section |  min time  |  avg time  |  max time  |%varavg| %total
---------------------------------------------------------------
Pair    | 0          | 0          | 0          |   0.0 |  0.00
Neigh   | 0          | 0          | 0          |   0.0 |  0.00
Comm    | 0          | 0          | 0          |   0.0 |  0.00
Output  | 0          | 0          | 0          |   0.0 |  0.00
Modify  | 0          | 0          | 0          |   0.0 |  0.00
Other   |            | 4.53e-06   |            |       |100.00

Nlocal:        32.0000 ave          32 max          32 min
Histogram: 1 0 0 0 0 0 0 0 0 0
Nghost:        1340.00 ave        1340 max        1340 min
Histogram: 1 0 0 0 0 0 0 0 0 0
Neighs:        3197.00 ave        3197 max        3197 min
Histogram: 1 0 0 0 0 0 0 0 0 0

Total # of neighbors = 3197
Ave neighs/atom = 99.906250
Neighbor list builds = 0
Dangerous builds = 0

# Positive deformation

variable delta equal ${up}*${len0}
variable delta equal 0.1*${len0}
variable delta equal 0.1*7.02315192302752
variable deltaxy equal ${up}*xy
variable deltaxy equal 0.1*xy
variable deltaxz equal ${up}*xz
variable deltaxz equal 0.1*xz
variable deltayz equal ${up}*yz
variable deltayz equal 0.1*yz
if "${dir} == 1" then    "change_box all x delta 0 ${delta} xy delta ${deltaxy} xz delta ${deltaxz} remap units box"
if "${dir} == 2" then    "change_box all y delta 0 ${delta} yz delta ${deltayz} remap units box"
if "${dir} == 3" then    "change_box all z delta 0 ${delta} remap units box"
if "${dir} == 4" then    "change_box all yz delta ${delta} remap units box"
if "${dir} == 5" then    "change_box all xz delta ${delta} remap units box"
if "${dir} == 6" then    "change_box all xy delta ${delta} remap units box"
change_box all xy delta ${delta} remap units box
change_box all xy delta 0.702315192302752 remap units box
Changing box ...
  triclinic box = (0.13842404 0.13842404 0.13842404) to (7.1615760 7.1615760 7.1615760) with tilt (0.70231519 0.0000000 0.0000000)

# Relax atoms positions

minimize ${etol} ${ftol} ${maxiter} ${maxeval}
minimize 0 ${ftol} ${maxiter} ${maxeval}
minimize 0 1e-10 ${maxiter} ${maxeval}
minimize 0 1e-10 1000 ${maxeval}
minimize 0 1e-10 1000 10000
Per MPI rank memory allocation (min/avg/max) = 4.130 | 4.130 | 4.130 Mbytes
Step Temp PotEng Press Pxx Pyy Pzz Pxy Pxz Pyz Lx Ly Lz Volume 
     382           10   -80846.539    44454.786    56789.685    55342.403     21232.27   -130234.45   -5581.4818    42.496177    7.0231519    7.0231519    7.0231519     346.4146 
     383           10   -80846.791    40767.224    53187.416    51468.765    17645.491   -129621.11   -4578.4684    329.10217    7.0231519    7.0231519    7.0231519     346.4146 
     384           10   -80847.012    37534.838    50062.164    48088.112    14454.237   -129182.32   -3697.6814    537.45972    7.0231519    7.0231519    7.0231519     346.4146 
     385           10   -80847.206    34708.724    47361.365    45150.855    11613.951    -128897.6   -2926.0851    679.40452    7.0231519    7.0231519    7.0231519     346.4146 
     386           10   -80847.375    32246.546    45043.136    42611.394    9085.1095   -128749.28   -2253.5766    764.11654    7.0231519    7.0231519    7.0231519     346.4146 
     387           10   -80847.521    30119.286     43086.79    40432.426    6838.6416    -128721.5   -1672.7089    798.36889    7.0231519    7.0231519    7.0231519     346.4146 
     388           10   -80847.647    28285.901    41438.952     38573.43    4845.3199   -128802.03   -1178.9309    786.12693    7.0231519    7.0231519    7.0231519     346.4146 
     389           10   -80847.754    26713.649    40071.597     37004.36    3064.9896   -128979.85   -770.82485    728.07105    7.0231519    7.0231519    7.0231519     346.4146 
     390           10   -80847.847    25365.014    38952.546    35679.822    1462.6754    -129248.3   -448.91162    621.55195    7.0231519    7.0231519    7.0231519     346.4146 
     391           10   -80847.918    24320.966    38143.955     34666.54    152.40179   -129566.44   -240.38987    476.63312    7.0231519    7.0231519    7.0231519     346.4146 
     392           10   -80847.968    23605.966    37627.842    33980.086   -790.02978   -129870.69   -133.53714    322.63307    7.0231519    7.0231519    7.0231519     346.4146 
     393           10   -80847.998    23194.069    37346.723    33603.439   -1367.9555   -130101.78   -85.008651    201.84187    7.0231519    7.0231519    7.0231519     346.4146 
     394           10   -80848.015    22954.808    37184.903     33386.46   -1706.9394   -130270.15    -52.89789    119.64553    7.0231519    7.0231519    7.0231519     346.4146 
     395           10   -80848.026    22800.946     37066.42    33246.506    -1910.087   -130398.11   -26.202267    65.337566    7.0231519    7.0231519    7.0231519     346.4146 
     396           10   -80848.033    22703.325    36967.904    33174.061   -2031.9897   -130493.32   -6.9302729    33.402185    7.0231519    7.0231519    7.0231519     346.4146 
     397           10   -80848.037    22673.948    36932.635    33149.713    -2060.504   -130551.86    1.5313244    19.917217    7.0231519    7.0231519    7.0231519     346.4146 
     398           10   -80848.037    22682.488    36934.784    33149.252   -2036.5727   -130568.41    1.2423457    18.023623    7.0231519    7.0231519    7.0231519     346.4146 
     399           10   -80848.037    22682.935    36934.767    33149.269   -2035.2289   -130569.31    1.1880777    17.924933    7.0231519    7.0231519    7.0231519     346.4146 
     400           10   -80848.037     22683.42    36934.813    33149.311   -2033.8627   -130570.18    1.1926369     17.85321    7.0231519    7.0231519    7.0231519     346.4146 
     401           10   -80848.037    22683.403    36934.765    33149.242   -2033.7977   -130570.28    1.1775768     17.83637    7.0231519    7.0231519    7.0231519     346.4146 
     402           10   -80848.037    22683.391    36934.756    33149.225   -2033.8074   -130570.28    1.1772502    17.834557    7.0231519    7.0231519    7.0231519     346.4146 
     403           10   -80848.037    22683.391    36934.757    33149.223   -2033.8065   -130570.28    1.1766438    17.834072    7.0231519    7.0231519    7.0231519     346.4146 
     404           10   -80848.037     22683.39    36934.756    33149.222   -2033.8074   -130570.28    1.1760379    17.834088    7.0231519    7.0231519    7.0231519     346.4146 
     405           10   -80848.037     22683.39    36934.756    33149.222   -2033.8074   -130570.28    1.1760379    17.834088    7.0231519    7.0231519    7.0231519     346.4146 
Loop time of 2.53201 on 1 procs for 23 steps with 32 atoms

99.1% CPU use with 1 MPI tasks x no OpenMP threads

Minimization stats:
  Stopping criterion = linesearch alpha is zero
  Energy initial, next-to-last, final = 
     -80846.5386453914  -80848.0372329291  -80848.0372329291
  Force two-norm initial, final = 6.9143281 0.00052072253
  Force max component initial, final = 1.7904789 0.0001700777
  Final line search alpha, max atom move = 0.03125 5.3149282e-06
  Iterations, force evaluations = 23 40

MPI task timing breakdown:
Section |  min time  |  avg time  |  max time  |%varavg| %total
---------------------------------------------------------------
Pair    | 0.00039649 | 0.00039649 | 0.00039649 |   0.0 |  0.02
Neigh   | 0          | 0          | 0          |   0.0 |  0.00
Comm    | 0.00065494 | 0.00065494 | 0.00065494 |   0.0 |  0.03
Output  | 0.0015306  | 0.0015306  | 0.0015306  |   0.0 |  0.06
Modify  | 2.5287     | 2.5287     | 2.5287     |   0.0 | 99.87
Other   |            | 0.000725   |            |       |  0.03

Nlocal:        32.0000 ave          32 max          32 min
Histogram: 1 0 0 0 0 0 0 0 0 0
Nghost:        1340.00 ave        1340 max        1340 min
Histogram: 1 0 0 0 0 0 0 0 0 0
Neighs:        3234.00 ave        3234 max        3234 min
Histogram: 1 0 0 0 0 0 0 0 0 0

Total # of neighbors = 3234
Ave neighs/atom = 101.06250
Neighbor list builds = 0
Dangerous builds = 0

# Obtain new stress tensor

variable tmp equal pe
variable e1 equal ${tmp}
variable e1 equal -80848.0372329291
variable tmp equal press
variable p1 equal ${tmp}
variable p1 equal 22683.3903081664
variable tmp equal pxx
variable pxx1 equal ${tmp}
variable pxx1 equal 36934.7564951299
variable tmp equal pyy
variable pyy1 equal ${tmp}
variable pyy1 equal 33149.2218134471
variable tmp equal pzz
variable pzz1 equal ${tmp}
variable pzz1 equal -2033.80738407767
variable tmp equal pxy
variable pxy1 equal ${tmp}
variable pxy1 equal -130570.279957783
variable tmp equal pxz
variable pxz1 equal ${tmp}
variable pxz1 equal 1.17603788321004
variable tmp equal pyz
variable pyz1 equal ${tmp}
variable pyz1 equal 17.8340878818847

# Compute elastic constant from pressure tensor

variable C1pos equal ${d1}
variable C1pos equal -36.7998496379322
variable C2pos equal ${d2}
variable C2pos equal -33.0555228343801
variable C3pos equal ${d3}
variable C3pos equal 2.18603184540233
variable C4pos equal ${d4}
variable C4pos equal 7.88096025026164e-08
variable C5pos equal ${d5}
variable C5pos equal -1.27114467989964e-07
variable C6pos equal ${d6}
variable C6pos equal 130.592191414865

# Combine positive and negative

variable C1${dir} equal 0.5*(${C1neg}+${C1pos})
variable C16 equal 0.5*(${C1neg}+${C1pos})
variable C16 equal 0.5*(36.7998495805773+${C1pos})
variable C16 equal 0.5*(36.7998495805773+-36.7998496379322)
variable C2${dir} equal 0.5*(${C2neg}+${C2pos})
variable C26 equal 0.5*(${C2neg}+${C2pos})
variable C26 equal 0.5*(33.0555226925302+${C2pos})
variable C26 equal 0.5*(33.0555226925302+-33.0555228343801)
variable C3${dir} equal 0.5*(${C3neg}+${C3pos})
variable C36 equal 0.5*(${C3neg}+${C3pos})
variable C36 equal 0.5*(-2.1860316698125+${C3pos})
variable C36 equal 0.5*(-2.1860316698125+2.18603184540233)
variable C4${dir} equal 0.5*(${C4neg}+${C4pos})
variable C46 equal 0.5*(${C4neg}+${C4pos})
variable C46 equal 0.5*(4.29984936545225e-14+${C4pos})
variable C46 equal 0.5*(4.29984936545225e-14+7.88096025026164e-08)
variable C5${dir} equal 0.5*(${C5neg}+${C5pos})
variable C56 equal 0.5*(${C5neg}+${C5pos})
variable C56 equal 0.5*(-5.46900302822451e-14+${C5pos})
variable C56 equal 0.5*(-5.46900302822451e-14+-1.27114467989964e-07)
variable C6${dir} equal 0.5*(${C6neg}+${C6pos})
variable C66 equal 0.5*(${C6neg}+${C6pos})
variable C66 equal 0.5*(130.592191484081+${C6pos})
variable C66 equal 0.5*(130.592191484081+130.592191414865)

# Delete dir to make sure it is not reused

variable dir delete

# Output final values

variable C11all equal ${C11}
variable C11all equal 280.43134846934
variable C22all equal ${C22}
variable C22all equal 280.427187172432
variable C33all equal ${C33}
variable C33all equal 280.43309982654

variable C12all equal 0.5*(${C12}+${C21})
variable C12all equal 0.5*(197.556407393637+${C21})
variable C12all equal 0.5*(197.556407393637+197.552242609191)
variable C13all equal 0.5*(${C13}+${C31})
variable C13all equal 0.5*(197.556409677249+${C31})
variable C13all equal 0.5*(197.556409677249+197.558154227432)
variable C23all equal 0.5*(${C23}+${C32})
variable C23all equal 0.5*(197.552240124682+${C32})
variable C23all equal 0.5*(197.552240124682+197.558156684642)

variable C44all equal ${C44}
variable C44all equal 130.592191518358
variable C55all equal ${C55}
variable C55all equal 130.592191484082
variable C66all equal ${C66}
variable C66all equal 130.592191449473

variable C14all equal 0.5*(${C14}+${C41})
variable C14all equal 0.5*(3.51022199973627e-07+${C41})
variable C14all equal 0.5*(3.51022199973627e-07+0.00180137031559075)
variable C15all equal 0.5*(${C15}+${C51})
variable C15all equal 0.5*(-4.9737991503207e-14+${C51})
variable C15all equal 0.5*(-4.9737991503207e-14+0.00011775919694977)
variable C16all equal 0.5*(${C16}+${C61})
variable C16all equal 0.5*(-2.86774479718588e-08+${C61})
variable C16all equal 0.5*(-2.86774479718588e-08+0.00221419413369545)

variable C24all equal 0.5*(${C24}+${C42})
variable C24all equal 0.5*(1.93670601333906e-07+${C42})
variable C24all equal 0.5*(1.93670601333906e-07+0.0018021466964456)
variable C25all equal 0.5*(${C25}+${C52})
variable C25all equal 0.5*(9.99200722162641e-15+${C52})
variable C25all equal 0.5*(9.99200722162641e-15+0.00011865060347748)
variable C26all equal 0.5*(${C26}+${C62})
variable C26all equal 0.5*(-7.0924951245388e-08+${C62})
variable C26all equal 0.5*(-7.0924951245388e-08+0.0022156885263247)

variable C34all equal 0.5*(${C34}+${C43})
variable C34all equal 0.5*(1.01814297437386e-07+${C43})
variable C34all equal 0.5*(1.01814297437386e-07+0.00179743509289225)
variable C35all equal 0.5*(${C35}+${C53})
variable C35all equal 0.5*(0+${C53})
variable C35all equal 0.5*(0+0.00012741634923874)
variable C36all equal 0.5*(${C36}+${C63})
variable C36all equal 0.5*(8.77949151156798e-08+${C63})
variable C36all equal 0.5*(8.77949151156798e-08+0.0022162801093481)

variable C45all equal 0.5*(${C45}+${C54})
variable C45all equal 0.5*(-4.83009188201322e-14+${C54})
variable C45all equal 0.5*(-4.83009188201322e-14+-1.03347963400058e-07)
variable C46all equal 0.5*(${C46}+${C64})
variable C46all equal 0.5*(3.9404822750555e-08+${C64})
variable C46all equal 0.5*(3.9404822750555e-08+-5.10601194498863e-08)
variable C56all equal 0.5*(${C56}+${C65})
variable C56all equal 0.5*(-6.35572613399971e-08+${C65})
variable C56all equal 0.5*(-6.35572613399971e-08+-1.62501123668335e-14)

# Average moduli for cubic crystals

variable C11cubic equal (${C11all}+${C22all}+${C33all})/3.0
variable C11cubic equal (280.43134846934+${C22all}+${C33all})/3.0
variable C11cubic equal (280.43134846934+280.427187172432+${C33all})/3.0
variable C11cubic equal (280.43134846934+280.427187172432+280.43309982654)/3.0
variable C12cubic equal (${C12all}+${C13all}+${C23all})/3.0
variable C12cubic equal (197.554325001414+${C13all}+${C23all})/3.0
variable C12cubic equal (197.554325001414+197.557281952341+${C23all})/3.0
variable C12cubic equal (197.554325001414+197.557281952341+197.555198404662)/3.0
variable C44cubic equal (${C44all}+${C55all}+${C66all})/3.0
variable C44cubic equal (130.592191518358+${C55all}+${C66all})/3.0
variable C44cubic equal (130.592191518358+130.592191484082+${C66all})/3.0
variable C44cubic equal (130.592191518358+130.592191484082+130.592191449473)/3.0

variable bulkmodulus equal (${C11cubic}+2*${C12cubic})/3.0
variable bulkmodulus equal (280.430545156104+2*${C12cubic})/3.0
variable bulkmodulus equal (280.430545156104+2*197.555601786139)/3.0
variable shearmodulus1 equal ${C44cubic}
variable shearmodulus1 equal 130.592191483971
variable shearmodulus2 equal (${C11cubic}-${C12cubic})/2.0
variable shearmodulus2 equal (280.430545156104-${C12cubic})/2.0
variable shearmodulus2 equal (280.430545156104-197.555601786139)/2.0
variable poissonratio equal 1.0/(1.0+${C11cubic}/${C12cubic})
variable poissonratio equal 1.0/(1.0+280.430545156104/${C12cubic})
variable poissonratio equal 1.0/(1.0+280.430545156104/197.555601786139)

# For Stillinger-Weber silicon, the analytical results
# are known to be (E. R. Cowley, 1988):
#               C11 = 151.4 GPa
#               C12 = 76.4 GPa
#               C44 = 56.4 GPa

print "========================================="
=========================================
print "Components of the Elastic Constant Tensor"
Components of the Elastic Constant Tensor
print "========================================="
=========================================

print "Elastic Constant C11all = ${C11all} ${cunits}"
Elastic Constant C11all = 280.43134846934 GPa
print "Elastic Constant C22all = ${C22all} ${cunits}"
Elastic Constant C22all = 280.427187172432 GPa
print "Elastic Constant C33all = ${C33all} ${cunits}"
Elastic Constant C33all = 280.43309982654 GPa

print "Elastic Constant C12all = ${C12all} ${cunits}"
Elastic Constant C12all = 197.554325001414 GPa
print "Elastic Constant C13all = ${C13all} ${cunits}"
Elastic Constant C13all = 197.557281952341 GPa
print "Elastic Constant C23all = ${C23all} ${cunits}"
Elastic Constant C23all = 197.555198404662 GPa

print "Elastic Constant C44all = ${C44all} ${cunits}"
Elastic Constant C44all = 130.592191518358 GPa
print "Elastic Constant C55all = ${C55all} ${cunits}"
Elastic Constant C55all = 130.592191484082 GPa
print "Elastic Constant C66all = ${C66all} ${cunits}"
Elastic Constant C66all = 130.592191449473 GPa

print "Elastic Constant C14all = ${C14all} ${cunits}"
Elastic Constant C14all = 0.000900860668895362 GPa
print "Elastic Constant C15all = ${C15all} ${cunits}"
Elastic Constant C15all = 5.8879598450016e-05 GPa
print "Elastic Constant C16all = ${C16all} ${cunits}"
Elastic Constant C16all = 0.00110708272812374 GPa

print "Elastic Constant C24all = ${C24all} ${cunits}"
Elastic Constant C24all = 0.000901170183523467 GPa
print "Elastic Constant C25all = ${C25all} ${cunits}"
Elastic Constant C25all = 5.9325301743736e-05 GPa
print "Elastic Constant C26all = ${C26all} ${cunits}"
Elastic Constant C26all = 0.00110780880068673 GPa

print "Elastic Constant C34all = ${C34all} ${cunits}"
Elastic Constant C34all = 0.000898768453594844 GPa
print "Elastic Constant C35all = ${C35all} ${cunits}"
Elastic Constant C35all = 6.370817461937e-05 GPa
print "Elastic Constant C36all = ${C36all} ${cunits}"
Elastic Constant C36all = 0.00110818395213161 GPa

print "Elastic Constant C45all = ${C45all} ${cunits}"
Elastic Constant C45all = -5.16740058504884e-08 GPa
print "Elastic Constant C46all = ${C46all} ${cunits}"
Elastic Constant C46all = -5.82764834966565e-09 GPa
print "Elastic Constant C56all = ${C56all} ${cunits}"
Elastic Constant C56all = -3.17786387950547e-08 GPa

print "========================================="
=========================================
print "Average properties for a cubic crystal"
Average properties for a cubic crystal
print "========================================="
=========================================

print "Bulk Modulus = ${bulkmodulus} ${cunits}"
Bulk Modulus = 225.180582909461 GPa
print "Shear Modulus 1 = ${shearmodulus1} ${cunits}"
Shear Modulus 1 = 130.592191483971 GPa
print "Shear Modulus 2 = ${shearmodulus2} ${cunits}"
Shear Modulus 2 = 41.4374716849825 GPa
print "Poisson Ratio = ${poissonratio}"
Poisson Ratio = 0.413308216252574
